 Gaussian 09, Revision C.01,
 Gaussian 09:  EM64L-G09RevC.01 23-Sep-2011

 ------------------------
 # rhf/STO-3G nmr pop=nbo
 ------------------------

 99/9=1/99;
 -------
 comment
 -------
 Charge =  0 Multiplicity = 1

                         Standard orientation:
 ---------------------------------------------------------------------
 Center     Atomic      Atomic             Coordinates (Angstroms)
 Number     Number       Type             X           Y           Z
 ---------------------------------------------------------------------
      1          6           0       -3.457315    0.020354    0.026958
      2          6           0       -2.112068    0.532885    0.543107
      3          6           0       -0.160939   -1.081416    0.100848
      4          6           0        0.095951    1.438048   -0.265375
      5          6           0        0.786972    0.056034   -0.366901
      6          6           0       -1.400717    1.358513   -0.537456
      7          6           0       -1.227024   -0.603226    1.090522
      8          8           0       -0.802929   -1.634834   -1.050895
      9          6           0        2.154190    0.047121    0.386073
     10          6           0        3.028808    1.258485    0.030148
     11          6           0        2.964800   -1.222968    0.085728
     12          1           0       -4.082722    0.852763   -0.313023
     13          1           0       -3.331693   -0.671373   -0.811866
     14          1           0       -4.002813   -0.503790    0.818788
     15          1           0       -2.333305    1.198947    1.388446
     16          1           0        0.394203   -1.902178    0.560221
     17          1           0        0.553221    2.128230   -0.984529
     18          1           0        0.249446    1.869854    0.732024
     19          1           0        1.004205   -0.106849   -1.432886
     20          1           0       -1.566258    0.930004   -1.533834
     21          1           0       -1.827789    2.368399   -0.561163
     22          1           0       -1.854988   -1.447449    1.400477
     23          1           0       -0.718632   -0.247632    1.996379
     24          1           0       -1.381332   -2.354679   -0.746127
     25          1           0        1.961530    0.079843    1.466239
     26          1           0        3.191673    1.324004   -1.050999
     27          1           0        2.577265    2.196278    0.367161
     28          1           0        4.008687    1.188218    0.515328
     29          1           0        3.134002   -1.336884   -0.990504
     30          1           0        2.469100   -2.126601    0.448469
     31          1           0        3.943677   -1.183412    0.576644
 ---------------------------------------------------------------------

 SCF Done:  E(RHF) =  -459.612510381     A.U. after   10 cycles

      1  C    Isotropic =   220.1846   Anisotropy =    27.8562

      2  C    Isotropic =   216.1997   Anisotropy =     8.2391

      3  C    Isotropic =   188.3437   Anisotropy =    39.1181

      4  C    Isotropic =   217.1102   Anisotropy =    13.1131

      5  C    Isotropic =   207.9897   Anisotropy =    16.4388

      6  C    Isotropic =   217.3938   Anisotropy =    17.2590

      7  C    Isotropic =   215.8035   Anisotropy =    14.2269

      8  O    Isotropic =   351.7061   Anisotropy =   100.3305

      9  C    Isotropic =   212.5295   Anisotropy =    16.2982

     10  C    Isotropic =   221.4729   Anisotropy =    24.6394

     11  C    Isotropic =   221.3846   Anisotropy =    26.1960

     12  H    Isotropic =    32.3791   Anisotropy =    14.2248

     13  H    Isotropic =    32.4684   Anisotropy =     9.4060

     14  H    Isotropic =    32.6116   Anisotropy =    13.8175

     15  H    Isotropic =    32.4251   Anisotropy =    13.5289

     16  H    Isotropic =    31.9477   Anisotropy =    10.1000

     17  H    Isotropic =    32.2488   Anisotropy =    12.9938

     18  H    Isotropic =    32.8247   Anisotropy =     9.7552

     19  H    Isotropic =    32.1469   Anisotropy =     9.4312

     20  H    Isotropic =    32.3455   Anisotropy =     9.9894

     21  H    Isotropic =    32.3133   Anisotropy =    14.8357

     22  H    Isotropic =    32.9477   Anisotropy =    12.6857

     23  H    Isotropic =    32.4225   Anisotropy =    11.3397

     24  H    Isotropic =    35.1484   Anisotropy =    18.5463

     25  H    Isotropic =    32.8429   Anisotropy =     9.1789

     26  H    Isotropic =    32.5337   Anisotropy =    11.4115

     27  H    Isotropic =    32.3663   Anisotropy =    10.7318

     28  H    Isotropic =    32.5105   Anisotropy =    14.3163

     29  H    Isotropic =    32.4925   Anisotropy =    11.5022

     30  H    Isotropic =    32.3354   Anisotropy =    10.8184

     31  H    Isotropic =    32.5133   Anisotropy =    14.2660

 The electronic state is 1-A.
 Alpha  occ. eigenvalues --  -20.23436 -11.08333 -11.04749 -11.04290 -11.04179
 Alpha  occ. eigenvalues --  -11.03665 -11.03224 -11.03017 -11.02939 -11.02864
 Alpha  occ. eigenvalues --  -11.02795  -1.27611  -1.07680  -1.03513  -0.96565
 Alpha  occ. eigenvalues --   -0.94704  -0.88707  -0.87687  -0.79465  -0.77936
 Alpha  occ. eigenvalues --   -0.73410  -0.68534  -0.63400  -0.60301  -0.58948
 Alpha  occ. eigenvalues --   -0.57425  -0.55260  -0.54602  -0.52711  -0.51995
 Alpha  occ. eigenvalues --   -0.51077  -0.49987  -0.49740  -0.49420  -0.45771
 Alpha  occ. eigenvalues --   -0.45180  -0.42952  -0.42619  -0.42382  -0.40796
 Alpha  occ. eigenvalues --   -0.39610  -0.38274  -0.36592  -0.32868
 Alpha virt. eigenvalues --    0.51975   0.56244   0.58807   0.59987   0.60877
 Alpha virt. eigenvalues --    0.61264   0.61699   0.62953   0.65947   0.67532
 Alpha virt. eigenvalues --    0.68391   0.69791   0.70087   0.71364   0.72089

 Mulliken atomic charges:
              1
     1  C   -0.172493
     2  C   -0.021751
     3  C    0.074144
     4  C   -0.099451
     5  C   -0.033584
     6  C   -0.100820
     7  C   -0.115188
     8  O   -0.314725
     9  C   -0.018660
    10  C   -0.173373
    11  C   -0.173788
    12  H    0.053715
    13  H    0.056788
    14  H    0.049425
    15  H    0.045579
    16  H    0.042988
    17  H    0.051688
    18  H    0.044273
    19  H    0.058965
    20  H    0.058223
    21  H    0.048990
    22  H    0.046572
    23  H    0.050799
    24  H    0.173770
    25  H    0.043838
    26  H    0.053590
    27  H    0.055230
    28  H    0.053936
    29  H    0.055110
    30  H    0.052889
    31  H    0.053318
 Sum of Mulliken atomic charges =   0.00000

 Dipole moment (field-independent basis, Debye):
    X=             -0.1264    Y=             -0.2415    Z=              1.2539  Tot=              1.2832
 Quadrupole moment (field-independent basis, Debye-Ang):
   XX=            -67.3290   YY=            -65.5878   ZZ=            -69.1571
   XY=              1.4180   XZ=             -0.7452   YZ=             -1.7169

 Summary of Natural Population Analysis:

                                       Natural Population
                Natural  -----------------------------------------------
    Atom  No    Charge         Core      Valence    Rydberg      Total
 -----------------------------------------------------------------------
      C    1   -0.12760      1.99998     4.12763    0.00000     6.12760
      C    2    0.01677      1.99997     3.98327    0.00000     5.98323
      C    3    0.14275      1.99988     3.85737    0.00000     5.85725
      C    4   -0.06192      1.99996     4.06197    0.00000     6.06192
      C    5   -0.01090      1.99995     4.01095    0.00000     6.01090
      C    6   -0.06475      1.99996     4.06478    0.00000     6.06475
      C    7   -0.09137      1.99996     4.09141    0.00000     6.09137
      O    8   -0.33613      1.99999     6.33613    0.00000     8.33613
      C    9    0.02346      1.99996     3.97658    0.00000     5.97654
      C   10   -0.12933      1.99997     4.12936    0.00000     6.12933
      C   11   -0.12960      1.99997     4.12964    0.00000     6.12960
      H   12    0.03652      0.00000     0.96348    0.00000     0.96348
      H   13    0.03894      0.00000     0.96106    0.00000     0.96106
      H   14    0.03239      0.00000     0.96761    0.00000     0.96761
      H   15    0.02129      0.00000     0.97871    0.00000     0.97871
      H   16    0.00645      0.00000     0.99355    0.00000     0.99355
      H   17    0.03067      0.00000     0.96933    0.00000     0.96933
      H   18    0.02347      0.00000     0.97653    0.00000     0.97653
      H   19    0.03238      0.00000     0.96762    0.00000     0.96762
      H   20    0.03662      0.00000     0.96338    0.00000     0.96338
      H   21    0.02874      0.00000     0.97126    0.00000     0.97126
      H   22    0.02683      0.00000     0.97317    0.00000     0.97317
      H   23    0.03097      0.00000     0.96903    0.00000     0.96903
      H   24    0.18621      0.00000     0.81379    0.00000     0.81379
      H   25    0.01823      0.00000     0.98177    0.00000     0.98177
      H   26    0.03614      0.00000     0.96386    0.00000     0.96386
      H   27    0.03739      0.00000     0.96261    0.00000     0.96261
      H   28    0.03663      0.00000     0.96337    0.00000     0.96337
      H   29    0.03752      0.00000     0.96248    0.00000     0.96248
      H   30    0.03515      0.00000     0.96485    0.00000     0.96485
      H   31    0.03609      0.00000     0.96391    0.00000     0.96391
 =======================================================================
   * Total *    0.00000     21.99954    66.00046    0.00000    88.00000

 Normal termination of Gaussian 09 at Tue Aug  3 16:34:07 2021.
