 Gaussian 09, Revision C.01,
 Gaussian 09:  EM64L-G09RevC.01 23-Sep-2011

 ------------------------
 # rhf/STO-3G nmr pop=nbo
 ------------------------

 99/9=1/99;
 -------
 comment
 -------
 Charge =  0 Multiplicity = 1

                         Standard orientation:
 ---------------------------------------------------------------------
 Center     Atomic      Atomic             Coordinates (Angstroms)
 Number     Number       Type             X           Y           Z
 ---------------------------------------------------------------------
      1          6           0       -3.469342   -0.016997    0.013449
      2          6           0       -2.134663    0.521108    0.531079
      3          6           0       -0.161875   -1.081837    0.140097
      4          6           0        0.070381    1.433044   -0.276204
      5          6           0        0.773728    0.056256   -0.353747
      6          6           0       -1.422997    1.333491   -0.558938
      7          6           0       -1.241521   -0.593526    1.108803
      8          8           0       -0.810694   -1.684115   -0.982413
      9          6           0        2.142379    0.071294    0.395765
     10          6           0        3.004806    1.285851    0.022254
     11          6           0        2.963168   -1.195493    0.109400
     12          1           0       -4.016552   -0.530347    0.811161
     13          1           0       -4.100554    0.801080   -0.349799
     14          1           0       -3.328239   -0.724905   -0.809291
     15          1           0       -2.371208    1.201064    1.361088
     16          1           0        0.394066   -1.882470    0.633485
     17          1           0        0.525818    2.117054   -1.002370
     18          1           0        0.213066    1.880550    0.715833
     19          1           0        0.990511   -0.121538   -1.417193
     20          1           0       -1.575770    0.884169   -1.548210
     21          1           0       -1.860005    2.338311   -0.605225
     22          1           0       -1.863070   -1.438492    1.429791
     23          1           0       -0.745431   -0.213314    2.011509
     24          1           0       -0.118658   -2.065646   -1.549092
     25          1           0        1.951850    0.116254    1.475878
     26          1           0        3.164271    1.339323   -1.060058
     27          1           0        2.545278    2.223493    0.348799
     28          1           0        3.986534    1.230622    0.505629
     29          1           0        3.136400   -1.317790   -0.965295
     30          1           0        2.472640   -2.099546    0.478125
     31          1           0        3.940224   -1.144087    0.602794
 ---------------------------------------------------------------------

 SCF Done:  E(RHF) =  -459.612626781     A.U. after   10 cycles

      1  C    Isotropic =   220.1889   Anisotropy =    28.0414

      2  C    Isotropic =   216.0023   Anisotropy =     8.5721

      3  C    Isotropic =   187.9704   Anisotropy =    37.3343

      4  C    Isotropic =   217.1684   Anisotropy =    13.2060

      5  C    Isotropic =   205.7074   Anisotropy =    14.9344

      6  C    Isotropic =   217.3225   Anisotropy =    16.9596

      7  C    Isotropic =   217.0922   Anisotropy =    15.3215

      8  O    Isotropic =   347.3309   Anisotropy =    85.5563

      9  C    Isotropic =   212.7890   Anisotropy =    15.8954

     10  C    Isotropic =   221.5998   Anisotropy =    24.3900

     11  C    Isotropic =   221.7021   Anisotropy =    26.1803

     12  H    Isotropic =    32.4432   Anisotropy =    14.0832

     13  H    Isotropic =    32.4092   Anisotropy =    14.2375

     14  H    Isotropic =    32.0577   Anisotropy =     9.6336

     15  H    Isotropic =    32.4103   Anisotropy =    13.6669

     16  H    Isotropic =    31.9205   Anisotropy =     9.7854

     17  H    Isotropic =    32.3197   Anisotropy =    12.7045

     18  H    Isotropic =    32.8050   Anisotropy =     9.7798

     19  H    Isotropic =    33.0337   Anisotropy =     8.7706

     20  H    Isotropic =    32.4201   Anisotropy =     9.9147

     21  H    Isotropic =    32.3004   Anisotropy =    14.8116

     22  H    Isotropic =    32.1156   Anisotropy =    13.3181

     23  H    Isotropic =    32.4693   Anisotropy =    11.5627

     24  H    Isotropic =    35.0448   Anisotropy =    17.6206

     25  H    Isotropic =    32.8556   Anisotropy =     9.4336

     26  H    Isotropic =    32.6699   Anisotropy =    11.2646

     27  H    Isotropic =    32.3897   Anisotropy =    10.8386

     28  H    Isotropic =    32.5638   Anisotropy =    14.2254

     29  H    Isotropic =    32.8414   Anisotropy =    11.3666

     30  H    Isotropic =    32.5180   Anisotropy =    10.9675

     31  H    Isotropic =    32.5453   Anisotropy =    14.2027

 The electronic state is 1-A.
 Alpha  occ. eigenvalues --  -20.23490 -11.08340 -11.05061 -11.04314 -11.03884
 Alpha  occ. eigenvalues --  -11.03540 -11.03445 -11.03396 -11.03228 -11.02959
 Alpha  occ. eigenvalues --  -11.02006  -1.27634  -1.07734  -1.03590  -0.96513
 Alpha  occ. eigenvalues --   -0.94620  -0.89148  -0.87412  -0.79145  -0.78078
 Alpha  occ. eigenvalues --   -0.73518  -0.68503  -0.63818  -0.61530  -0.57756
 Alpha  occ. eigenvalues --   -0.57670  -0.55505  -0.54402  -0.52090  -0.51683
 Alpha  occ. eigenvalues --   -0.50834  -0.50080  -0.49695  -0.47961  -0.47122
 Alpha  occ. eigenvalues --   -0.45159  -0.44216  -0.42834  -0.42395  -0.40347
 Alpha  occ. eigenvalues --   -0.39650  -0.39159  -0.35768  -0.32787
 Alpha virt. eigenvalues --    0.52505   0.56744   0.57103   0.59969   0.61246
 Alpha virt. eigenvalues --    0.61507   0.62262   0.62661   0.66098   0.66847
 Alpha virt. eigenvalues --    0.67786   0.69544   0.69924   0.71502   0.72399

 Mulliken atomic charges:
              1
     1  C   -0.171813
     2  C   -0.020102
     3  C    0.073226
     4  C   -0.099633
     5  C   -0.040304
     6  C   -0.100601
     7  C   -0.105420
     8  O   -0.314492
     9  C   -0.020025
    10  C   -0.173556
    11  C   -0.175479
    12  H    0.049782
    13  H    0.050046
    14  H    0.064558
    15  H    0.043996
    16  H    0.043576
    17  H    0.050648
    18  H    0.045549
    19  H    0.043205
    20  H    0.055675
    21  H    0.049014
    22  H    0.059659
    23  H    0.050171
    24  H    0.174239
    25  H    0.045958
    26  H    0.052476
    27  H    0.056236
    28  H    0.054217
    29  H    0.051124
    30  H    0.052372
    31  H    0.055700
 Sum of Mulliken atomic charges =   0.00000

 Dipole moment (field-independent basis, Debye):
    X=              1.3715    Y=              0.1528    Z=              0.2413  Tot=              1.4009
 Quadrupole moment (field-independent basis, Debye-Ang):
   XX=            -69.8134   YY=            -67.6769   ZZ=            -66.2259
   XY=             -2.5846   XZ=             -1.7573   YZ=              0.3412

 Summary of Natural Population Analysis:

                                       Natural Population
                Natural  -----------------------------------------------
    Atom  No    Charge         Core      Valence    Rydberg      Total
 -----------------------------------------------------------------------
      C    1   -0.12731      1.99997     4.12734    0.00000     6.12731
      C    2    0.01831      1.99997     3.98172    0.00000     5.98169
      C    3    0.14179      1.99988     3.85833    0.00000     5.85821
      C    4   -0.06188      1.99996     4.06192    0.00000     6.06188
      C    5   -0.01795      1.99995     4.01800    0.00000     6.01795
      C    6   -0.06451      1.99996     4.06455    0.00000     6.06451
      C    7   -0.08129      1.99995     4.08134    0.00000     6.08129
      O    8   -0.33578      1.99999     6.33578    0.00000     8.33578
      C    9    0.02180      1.99996     3.97824    0.00000     5.97820
      C   10   -0.12956      1.99997     4.12959    0.00000     6.12956
      C   11   -0.13101      1.99997     4.13104    0.00000     6.13101
      H   12    0.03279      0.00000     0.96721    0.00000     0.96721
      H   13    0.03307      0.00000     0.96693    0.00000     0.96693
      H   14    0.04593      0.00000     0.95407    0.00000     0.95407
      H   15    0.01975      0.00000     0.98025    0.00000     0.98025
      H   16    0.00716      0.00000     0.99284    0.00000     0.99284
      H   17    0.02969      0.00000     0.97031    0.00000     0.97031
      H   18    0.02474      0.00000     0.97526    0.00000     0.97526
      H   19    0.01822      0.00000     0.98178    0.00000     0.98178
      H   20    0.03434      0.00000     0.96566    0.00000     0.96566
      H   21    0.02877      0.00000     0.97123    0.00000     0.97123
      H   22    0.03847      0.00000     0.96153    0.00000     0.96153
      H   23    0.03011      0.00000     0.96989    0.00000     0.96989
      H   24    0.18665      0.00000     0.81335    0.00000     0.81335
      H   25    0.02033      0.00000     0.97967    0.00000     0.97967
      H   26    0.03514      0.00000     0.96486    0.00000     0.96486
      H   27    0.03835      0.00000     0.96165    0.00000     0.96165
      H   28    0.03688      0.00000     0.96312    0.00000     0.96312
      H   29    0.03392      0.00000     0.96608    0.00000     0.96608
      H   30    0.03469      0.00000     0.96531    0.00000     0.96531
      H   31    0.03837      0.00000     0.96163    0.00000     0.96163
 =======================================================================
   * Total *    0.00000     21.99954    66.00046    0.00000    88.00000

 Normal termination of Gaussian 09 at Tue Aug  3 16:33:17 2021.
