 Gaussian 09, Revision C.01,
 Gaussian 09:  EM64L-G09RevC.01 23-Sep-2011

 ------------------------
 # rhf/STO-3G nmr pop=nbo
 ------------------------

 99/9=1/99;
 -------
 comment
 -------
 Charge =  0 Multiplicity = 1

                         Standard orientation:
 ---------------------------------------------------------------------
 Center     Atomic      Atomic             Coordinates (Angstroms)
 Number     Number       Type             X           Y           Z
 ---------------------------------------------------------------------
      1          6           0       -3.453060   -0.038281   -0.136178
      2          6           0       -2.172652    0.514321    0.491498
      3          6           0       -0.149617   -1.071700    0.223473
      4          6           0        0.078508    1.447688   -0.168281
      5          6           0        0.763553    0.069551   -0.306060
      6          6           0       -1.403593    1.379207   -0.513872
      7          6           0       -1.300505   -0.591060    1.112222
      8          8           0       -0.679244   -1.815051   -0.875886
      9          6           0        2.170722    0.051530    0.368661
     10          6           0        3.021144    1.276858    0.006853
     11          6           0        2.963641   -1.206968   -0.017108
     12          1           0       -4.045127   -0.583368    0.606608
     13          1           0       -4.074768    0.775840   -0.523989
     14          1           0       -3.238753   -0.721516   -0.963388
     15          1           0       -2.489955    1.164762    1.318540
     16          1           0        0.425251   -1.794051    0.809138
     17          1           0        0.560822    2.166745   -0.841047
     18          1           0        0.196283    1.835215    0.851687
     19          1           0        0.923980   -0.093676   -1.381940
     20          1           0       -1.518986    0.993987   -1.534495
     21          1           0       -1.828858    2.390253   -0.519249
     22          1           0       -1.928472   -1.442657    1.401633
     23          1           0       -0.864021   -0.199803    2.041143
     24          1           0       -1.092645   -1.193220   -1.496620
     25          1           0        2.037150    0.049693    1.458353
     26          1           0        3.119638    1.383632   -1.078730
     27          1           0        2.587974    2.198842    0.406358
     28          1           0        4.028078    1.191619    0.430281
     29          1           0        3.109243   -1.262805   -1.101456
     30          1           0        2.465436   -2.125553    0.302961
     31          1           0        3.952840   -1.200401    0.454052
 ---------------------------------------------------------------------

 SCF Done:  E(RHF) =  -459.609765312     A.U. after   10 cycles

      1  C    Isotropic =   220.1041   Anisotropy =    27.7918

      2  C    Isotropic =   217.0753   Anisotropy =     8.1325

      3  C    Isotropic =   188.1104   Anisotropy =    36.7118

      4  C    Isotropic =   218.0449   Anisotropy =    12.3215

      5  C    Isotropic =   205.7338   Anisotropy =    15.2959

      6  C    Isotropic =   217.7943   Anisotropy =    17.7713

      7  C    Isotropic =   217.0639   Anisotropy =    12.9501

      8  O    Isotropic =   345.5129   Anisotropy =    63.5851

      9  C    Isotropic =   212.0701   Anisotropy =    16.9491

     10  C    Isotropic =   221.7124   Anisotropy =    23.7615

     11  C    Isotropic =   221.2802   Anisotropy =    26.2403

     12  H    Isotropic =    32.4048   Anisotropy =    14.2588

     13  H    Isotropic =    32.4888   Anisotropy =    14.0014

     14  H    Isotropic =    32.8172   Anisotropy =     9.3127

     15  H    Isotropic =    32.4216   Anisotropy =    13.7786

     16  H    Isotropic =    31.4322   Anisotropy =    10.3671

     17  H    Isotropic =    32.4790   Anisotropy =    12.6082

     18  H    Isotropic =    32.8827   Anisotropy =     9.9593

     19  H    Isotropic =    32.9095   Anisotropy =     8.5284

     20  H    Isotropic =    33.3946   Anisotropy =     9.9670

     21  H    Isotropic =    32.3145   Anisotropy =    14.5061

     22  H    Isotropic =    32.1841   Anisotropy =    13.6266

     23  H    Isotropic =    32.4782   Anisotropy =    12.0180

     24  H    Isotropic =    35.1360   Anisotropy =    11.5005

     25  H    Isotropic =    32.8039   Anisotropy =     9.5526

     26  H    Isotropic =    32.6551   Anisotropy =    11.1396

     27  H    Isotropic =    32.4600   Anisotropy =    10.7131

     28  H    Isotropic =    32.5106   Anisotropy =    14.3510

     29  H    Isotropic =    32.5059   Anisotropy =    11.4167

     30  H    Isotropic =    32.1222   Anisotropy =    10.6609

     31  H    Isotropic =    32.4669   Anisotropy =    14.4942

 The electronic state is 1-A.
 Alpha  occ. eigenvalues --  -20.23345 -11.08350 -11.04909 -11.04777 -11.04446
 Alpha  occ. eigenvalues --  -11.04207 -11.04014 -11.03525 -11.03337 -11.03148
 Alpha  occ. eigenvalues --  -11.02867  -1.27597  -1.08257  -1.03947  -0.97171
 Alpha  occ. eigenvalues --   -0.95051  -0.88853  -0.88175  -0.79882  -0.78474
 Alpha  occ. eigenvalues --   -0.73591  -0.69914  -0.63921  -0.60816  -0.57949
 Alpha  occ. eigenvalues --   -0.57776  -0.55258  -0.53763  -0.53149  -0.52443
 Alpha  occ. eigenvalues --   -0.51448  -0.50950  -0.50180  -0.48895  -0.47213
 Alpha  occ. eigenvalues --   -0.45735  -0.44373  -0.43114  -0.42666  -0.42074
 Alpha  occ. eigenvalues --   -0.40312  -0.38475  -0.35769  -0.32553
 Alpha virt. eigenvalues --    0.52580   0.55929   0.56947   0.59369   0.60207
 Alpha virt. eigenvalues --    0.60740   0.61458   0.63131   0.65348   0.67103
 Alpha virt. eigenvalues --    0.67545   0.68590   0.69354   0.71055   0.71856

 Mulliken atomic charges:
              1
     1  C   -0.172184
     2  C   -0.028644
     3  C    0.072552
     4  C   -0.102329
     5  C   -0.042420
     6  C   -0.104032
     7  C   -0.114399
     8  O   -0.314453
     9  C   -0.018070
    10  C   -0.173798
    11  C   -0.174041
    12  H    0.055723
    13  H    0.053598
    14  H    0.051823
    15  H    0.048828
    16  H    0.060779
    17  H    0.052934
    18  H    0.048445
    19  H    0.048609
    20  H    0.041452
    21  H    0.053839
    22  H    0.060312
    23  H    0.049282
    24  H    0.175221
    25  H    0.044743
    26  H    0.052547
    27  H    0.054445
    28  H    0.054858
    29  H    0.054134
    30  H    0.056852
    31  H    0.053398
 Sum of Mulliken atomic charges =   0.00000

 Dipole moment (field-independent basis, Debye):
    X=             -0.0428    Y=              1.5789    Z=              0.2694  Tot=              1.6023
 Quadrupole moment (field-independent basis, Debye-Ang):
   XX=            -67.5338   YY=            -72.3985   ZZ=            -65.9712
   XY=             -1.1799   XZ=              0.4642   YZ=             -1.7412

 Summary of Natural Population Analysis:

                                       Natural Population
                Natural  -----------------------------------------------
    Atom  No    Charge         Core      Valence    Rydberg      Total
 -----------------------------------------------------------------------
      C    1   -0.12705      1.99997     4.12708    0.00000     6.12705
      C    2    0.00934      1.99997     3.99069    0.00000     5.99066
      C    3    0.13975      1.99989     3.86036    0.00000     5.86025
      C    4   -0.06526      1.99996     4.06530    0.00000     6.06526
      C    5   -0.02001      1.99995     4.02006    0.00000     6.02001
      C    6   -0.06657      1.99996     4.06660    0.00000     6.06657
      C    7   -0.09177      1.99996     4.09181    0.00000     6.09177
      O    8   -0.33547      1.99999     6.33548    0.00000     8.33547
      C    9    0.02410      1.99996     3.97594    0.00000     5.97590
      C   10   -0.12992      1.99997     4.12995    0.00000     6.12992
      C   11   -0.12999      1.99997     4.13002    0.00000     6.12999
      H   12    0.03828      0.00000     0.96172    0.00000     0.96172
      H   13    0.03628      0.00000     0.96372    0.00000     0.96372
      H   14    0.03441      0.00000     0.96559    0.00000     0.96559
      H   15    0.02487      0.00000     0.97513    0.00000     0.97513
      H   16    0.02469      0.00000     0.97531    0.00000     0.97531
      H   17    0.03193      0.00000     0.96807    0.00000     0.96807
      H   18    0.02767      0.00000     0.97233    0.00000     0.97233
      H   19    0.02330      0.00000     0.97670    0.00000     0.97670
      H   20    0.02163      0.00000     0.97837    0.00000     0.97837
      H   21    0.03345      0.00000     0.96655    0.00000     0.96655
      H   22    0.03945      0.00000     0.96055    0.00000     0.96055
      H   23    0.02956      0.00000     0.97044    0.00000     0.97044
      H   24    0.18715      0.00000     0.81285    0.00000     0.81285
      H   25    0.01913      0.00000     0.98087    0.00000     0.98087
      H   26    0.03526      0.00000     0.96474    0.00000     0.96474
      H   27    0.03677      0.00000     0.96323    0.00000     0.96323
      H   28    0.03755      0.00000     0.96245    0.00000     0.96245
      H   29    0.03663      0.00000     0.96337    0.00000     0.96337
      H   30    0.03870      0.00000     0.96130    0.00000     0.96130
      H   31    0.03613      0.00000     0.96387    0.00000     0.96387
 =======================================================================
   * Total *    0.00000     21.99955    66.00045    0.00000    88.00000

 Normal termination of Gaussian 09 at Sun May 24 02:07:11 2020.
