 Gaussian 09, Revision C.01,
 Gaussian 09:  EM64L-G09RevC.01 23-Sep-2011

 ------------------------
 # rhf/STO-3G nmr pop=nbo
 ------------------------

 99/9=1/99;
 -------
 comment
 -------
 Charge =  0 Multiplicity = 1

                         Standard orientation:
 ---------------------------------------------------------------------
 Center     Atomic      Atomic             Coordinates (Angstroms)
 Number     Number       Type             X           Y           Z
 ---------------------------------------------------------------------
      1          6           0        2.805851    0.651248   -0.861656
      2          6           0        2.313855   -0.293064    0.238661
      3          6           0       -0.014834    0.727498    0.722754
      4          6           0        0.143671   -1.622198   -0.180489
      5          6           0       -0.512298   -0.247162   -0.368773
      6          6           0        1.662902   -1.554214   -0.356804
      7          6           0        1.395065    0.412901    1.246210
      8          8           0       -0.050132    2.069580    0.236646
      9          6           0       -2.063159   -0.358179   -0.477153
     10          6           0       -2.722172    0.988851   -0.788329
     11          6           0       -2.739957   -0.992500    0.742203
     12          1           0        3.593442    0.168998   -1.451348
     13          1           0        2.008234    0.933802   -1.553689
     14          1           0        3.228320    1.565600   -0.432259
     15          1           0        3.212334   -0.610680    0.785380
     16          1           0       -0.686732    0.713170    1.586223
     17          1           0       -0.263625   -2.347512   -0.894895
     18          1           0       -0.076921   -2.010852    0.821446
     19          1           0       -0.183730    0.137367   -1.345078
     20          1           0        1.906704   -1.640465   -1.423162
     21          1           0        2.098743   -2.442627    0.117970
     22          1           0        1.878026    1.324985    1.617871
     23          1           0        1.290503   -0.256397    2.111252
     24          1           0        0.532935    2.130886   -0.537146
     25          1           0       -2.274392   -1.014687   -1.332914
     26          1           0       -2.247275    1.467817   -1.650791
     27          1           0       -3.781749    0.849867   -1.029972
     28          1           0       -2.667653    1.674302    0.063241
     29          1           0       -2.596826   -0.397115    1.648429
     30          1           0       -2.363260   -2.001855    0.931037
     31          1           0       -3.819563   -1.080329    0.575490
 ---------------------------------------------------------------------

 SCF Done:  E(RHF) =  -459.609064358     A.U. after   10 cycles

      1  C    Isotropic =   220.1265   Anisotropy =    26.3151

      2  C    Isotropic =   217.4062   Anisotropy =     4.1544

      3  C    Isotropic =   190.2269   Anisotropy =    38.9066

      4  C    Isotropic =   218.3324   Anisotropy =    14.0805

      5  C    Isotropic =   208.9311   Anisotropy =    10.4450

      6  C    Isotropic =   217.2157   Anisotropy =    16.5221

      7  C    Isotropic =   215.5780   Anisotropy =    12.0354

      8  O    Isotropic =   343.7546   Anisotropy =    62.6668

      9  C    Isotropic =   212.4478   Anisotropy =    17.2284

     10  C    Isotropic =   221.3200   Anisotropy =    24.2434

     11  C    Isotropic =   224.4507   Anisotropy =    21.1045

     12  H    Isotropic =    32.4337   Anisotropy =    14.3023

     13  H    Isotropic =    33.2083   Anisotropy =     7.5337

     14  H    Isotropic =    32.7070   Anisotropy =    13.5930

     15  H    Isotropic =    32.3701   Anisotropy =    15.3984

     16  H    Isotropic =    31.4802   Anisotropy =     9.4931

     17  H    Isotropic =    32.6066   Anisotropy =    12.9990

     18  H    Isotropic =    32.7540   Anisotropy =    10.6458

     19  H    Isotropic =    33.1557   Anisotropy =     7.9383

     20  H    Isotropic =    32.6545   Anisotropy =    12.2110

     21  H    Isotropic =    32.1741   Anisotropy =    15.1630

     22  H    Isotropic =    32.2983   Anisotropy =    13.7393

     23  H    Isotropic =    32.3309   Anisotropy =    12.9007

     24  H    Isotropic =    35.1797   Anisotropy =    13.0776

     25  H    Isotropic =    32.4830   Anisotropy =    12.2466

     26  H    Isotropic =    32.4487   Anisotropy =    11.6330

     27  H    Isotropic =    32.4578   Anisotropy =    14.9634

     28  H    Isotropic =    32.1083   Anisotropy =     9.1279

     29  H    Isotropic =    32.6787   Anisotropy =     9.9427

     30  H    Isotropic =    32.6263   Anisotropy =    11.3135

     31  H    Isotropic =    32.5392   Anisotropy =    14.8101

 The electronic state is 1-A.
 Alpha  occ. eigenvalues --  -20.23315 -11.08408 -11.04919 -11.04579 -11.04422
 Alpha  occ. eigenvalues --  -11.03866 -11.03788 -11.03761 -11.03677 -11.02914
 Alpha  occ. eigenvalues --  -11.02381  -1.27561  -1.08286  -1.03725  -0.96998
 Alpha  occ. eigenvalues --   -0.94653  -0.88991  -0.88478  -0.79669  -0.79421
 Alpha  occ. eigenvalues --   -0.72902  -0.69147  -0.62368  -0.61587  -0.58049
 Alpha  occ. eigenvalues --   -0.57737  -0.55790  -0.54914  -0.52857  -0.52642
 Alpha  occ. eigenvalues --   -0.51410  -0.50729  -0.49844  -0.49073  -0.46310
 Alpha  occ. eigenvalues --   -0.45650  -0.44340  -0.42959  -0.42282  -0.41754
 Alpha  occ. eigenvalues --   -0.39785  -0.39094  -0.35578  -0.32475
 Alpha virt. eigenvalues --    0.53694   0.54873   0.57123   0.58916   0.60725
 Alpha virt. eigenvalues --    0.61101   0.62165   0.63448   0.64946   0.65226
 Alpha virt. eigenvalues --    0.67421   0.68493   0.69538   0.70814   0.71685

 Mulliken atomic charges:
              1
     1  C   -0.175129
     2  C   -0.027683
     3  C    0.072134
     4  C   -0.101660
     5  C   -0.039422
     6  C   -0.103048
     7  C   -0.115493
     8  O   -0.314458
     9  C   -0.017616
    10  C   -0.173208
    11  C   -0.176310
    12  H    0.056656
    13  H    0.045196
    14  H    0.055064
    15  H    0.050281
    16  H    0.060059
    17  H    0.051688
    18  H    0.048871
    19  H    0.041667
    20  H    0.049450
    21  H    0.050191
    22  H    0.060665
    23  H    0.050770
    24  H    0.176357
    25  H    0.045868
    26  H    0.052479
    27  H    0.051164
    28  H    0.063366
    29  H    0.053382
    30  H    0.053553
    31  H    0.055165
 Sum of Mulliken atomic charges =   0.00000

 Dipole moment (field-independent basis, Debye):
    X=              0.8432    Y=             -1.2212    Z=             -0.5333  Tot=              1.5770
 Quadrupole moment (field-independent basis, Debye-Ang):
   XX=            -67.1269   YY=            -71.4708   ZZ=            -66.5302
   XY=              1.7843   XZ=             -0.1159   YZ=             -1.7090

 Summary of Natural Population Analysis:

                                       Natural Population
                Natural  -----------------------------------------------
    Atom  No    Charge         Core      Valence    Rydberg      Total
 -----------------------------------------------------------------------
      C    1   -0.12947      1.99997     4.12950    0.00000     6.12947
      C    2    0.01053      1.99997     3.98950    0.00000     5.98947
      C    3    0.13895      1.99989     3.86116    0.00000     5.86105
      C    4   -0.06440      1.99996     4.06444    0.00000     6.06440
      C    5   -0.01859      1.99995     4.01864    0.00000     6.01859
      C    6   -0.06557      1.99996     4.06561    0.00000     6.06557
      C    7   -0.09199      1.99996     4.09203    0.00000     6.09199
      O    8   -0.33534      1.99999     6.33535    0.00000     8.33534
      C    9    0.02366      1.99996     3.97638    0.00000     5.97634
      C   10   -0.12995      1.99997     4.12998    0.00000     6.12995
      C   11   -0.13254      1.99997     4.13257    0.00000     6.13254
      H   12    0.03936      0.00000     0.96064    0.00000     0.96064
      H   13    0.02847      0.00000     0.97153    0.00000     0.97153
      H   14    0.03754      0.00000     0.96246    0.00000     0.96246
      H   15    0.02600      0.00000     0.97400    0.00000     0.97400
      H   16    0.02442      0.00000     0.97558    0.00000     0.97558
      H   17    0.03095      0.00000     0.96905    0.00000     0.96905
      H   18    0.02799      0.00000     0.97201    0.00000     0.97201
      H   19    0.01753      0.00000     0.98247    0.00000     0.98247
      H   20    0.02861      0.00000     0.97139    0.00000     0.97139
      H   21    0.02946      0.00000     0.97054    0.00000     0.97054
      H   22    0.03992      0.00000     0.96008    0.00000     0.96008
      H   23    0.03075      0.00000     0.96925    0.00000     0.96925
      H   24    0.18818      0.00000     0.81182    0.00000     0.81182
      H   25    0.02066      0.00000     0.97934    0.00000     0.97934
      H   26    0.03534      0.00000     0.96466    0.00000     0.96466
      H   27    0.03417      0.00000     0.96583    0.00000     0.96583
      H   28    0.04491      0.00000     0.95509    0.00000     0.95509
      H   29    0.03604      0.00000     0.96396    0.00000     0.96396
      H   30    0.03618      0.00000     0.96382    0.00000     0.96382
      H   31    0.03823      0.00000     0.96177    0.00000     0.96177
 =======================================================================
   * Total *    0.00000     21.99955    66.00045    0.00000    88.00000

 Normal termination of Gaussian 09 at Tue Aug  3 16:34:15 2021.
