 Gaussian 09, Revision C.01,
 Gaussian 09:  EM64L-G09RevC.01 23-Sep-2011

 ------------------------
 # rhf/STO-3G nmr pop=nbo
 ------------------------

 99/9=1/99;
 -------
 comment
 -------
 Charge =  0 Multiplicity = 1

                         Standard orientation:
 ---------------------------------------------------------------------
 Center     Atomic      Atomic             Coordinates (Angstroms)
 Number     Number       Type             X           Y           Z
 ---------------------------------------------------------------------
      1          6           0        3.690095   -0.377592    0.019302
      2          6           0        2.211125   -0.274884    0.386846
      3          6           0        0.120833    1.144815    0.188445
      4          6           0       -0.062573   -1.372647    0.148749
      5          6           0       -0.671527   -0.057784   -0.371903
      6          6           0        1.430912   -1.472740   -0.165306
      7          6           0        1.615025    1.038199   -0.127324
      8          8           0       -0.371623    2.365757   -0.357801
      9          6           0       -2.204936    0.065928   -0.123522
     10          6           0       -2.603961    0.051113    1.354579
     11          6           0       -2.990735   -1.014853   -0.875452
     12          1           0        4.253509    0.462379    0.439098
     13          1           0        4.124496   -1.302500    0.413062
     14          1           0        3.832697   -0.372007   -1.066671
     15          1           0        2.134355   -0.285623    1.482255
     16          1           0       -0.000076    1.206032    1.275379
     17          1           0       -0.566157   -2.234429   -0.301597
     18          1           0       -0.199074   -1.451477    1.233592
     19          1           0       -0.543164   -0.043870   -1.464805
     20          1           0        1.566599   -1.539696   -1.252452
     21          1           0        1.825946   -2.402922    0.260600
     22          1           0        1.769046    1.128448   -1.211198
     23          1           0        2.140718    1.893951    0.315295
     24          1           0       -0.281495    2.317668   -1.324851
     25          1           0       -2.532497    1.028652   -0.537615
     26          1           0       -2.348038   -0.897560    1.836154
     27          1           0       -2.122637    0.860680    1.910113
     28          1           0       -3.686116    0.189332    1.458403
     29          1           0       -2.822923   -2.010581   -0.453446
     30          1           0       -2.711514   -1.037140   -1.933923
     31          1           0       -4.066234   -0.812736   -0.821469
 ---------------------------------------------------------------------

 SCF Done:  E(RHF) =  -459.624100735     A.U. after   10 cycles

      1  C    Isotropic =   221.1691   Anisotropy =    28.3348

      2  C    Isotropic =   215.3106   Anisotropy =     8.1086

      3  C    Isotropic =   189.0627   Anisotropy =    40.0549

      4  C    Isotropic =   219.2160   Anisotropy =    13.5925

      5  C    Isotropic =   207.5722   Anisotropy =    14.5307

      6  C    Isotropic =   215.6363   Anisotropy =    17.2156

      7  C    Isotropic =   213.4518   Anisotropy =    23.5304

      8  O    Isotropic =   351.0655   Anisotropy =    86.9934

      9  C    Isotropic =   214.7778   Anisotropy =    14.3079

     10  C    Isotropic =   224.3806   Anisotropy =    21.0336

     11  C    Isotropic =   221.3485   Anisotropy =    26.2743

     12  H    Isotropic =    32.4333   Anisotropy =    13.8564

     13  H    Isotropic =    32.4574   Anisotropy =    13.8243

     14  H    Isotropic =    32.7200   Anisotropy =    11.5166

     15  H    Isotropic =    32.8014   Anisotropy =    10.9834

     16  H    Isotropic =    31.6257   Anisotropy =     7.7376

     17  H    Isotropic =    32.4939   Anisotropy =    12.6418

     18  H    Isotropic =    32.8459   Anisotropy =    10.1459

     19  H    Isotropic =    33.2618   Anisotropy =     8.2014

     20  H    Isotropic =    32.9258   Anisotropy =    10.8360

     21  H    Isotropic =    32.4450   Anisotropy =    13.9072

     22  H    Isotropic =    33.1842   Anisotropy =     9.6746

     23  H    Isotropic =    31.9767   Anisotropy =    13.2943

     24  H    Isotropic =    35.3943   Anisotropy =    15.4871

     25  H    Isotropic =    32.0351   Anisotropy =    11.2883

     26  H    Isotropic =    32.7573   Anisotropy =    10.1391

     27  H    Isotropic =    32.3307   Anisotropy =    10.8223

     28  H    Isotropic =    32.5079   Anisotropy =    14.8492

     29  H    Isotropic =    32.5572   Anisotropy =    10.0205

     30  H    Isotropic =    32.6469   Anisotropy =    12.3454

     31  H    Isotropic =    32.4035   Anisotropy =    14.6800

 The electronic state is 1-A.
 Alpha  occ. eigenvalues --  -20.23820 -11.08455 -11.04863 -11.04484 -11.04333
 Alpha  occ. eigenvalues --  -11.03838 -11.03797 -11.03691 -11.03288 -11.02980
 Alpha  occ. eigenvalues --  -11.02744  -1.27886  -1.08400  -1.03823  -0.96963
 Alpha  occ. eigenvalues --   -0.94844  -0.88789  -0.87977  -0.79990  -0.77922
 Alpha  occ. eigenvalues --   -0.73522  -0.71325  -0.61397  -0.60061  -0.58951
 Alpha  occ. eigenvalues --   -0.57525  -0.56627  -0.54714  -0.53073  -0.52604
 Alpha  occ. eigenvalues --   -0.51716  -0.50402  -0.49101  -0.48082  -0.46934
 Alpha  occ. eigenvalues --   -0.45400  -0.44541  -0.42912  -0.42573  -0.41663
 Alpha  occ. eigenvalues --   -0.40744  -0.39308  -0.35930  -0.32534
 Alpha virt. eigenvalues --    0.53812   0.54689   0.57970   0.60130   0.60632
 Alpha virt. eigenvalues --    0.61418   0.62272   0.65775   0.66052   0.66698
 Alpha virt. eigenvalues --    0.69166   0.69588   0.70727   0.71527   0.72418

 Mulliken atomic charges:
              1
     1  C   -0.171866
     2  C   -0.023856
     3  C    0.075311
     4  C   -0.103994
     5  C   -0.039520
     6  C   -0.099347
     7  C   -0.112115
     8  O   -0.311711
     9  C   -0.020773
    10  C   -0.175531
    11  C   -0.173342
    12  H    0.054590
    13  H    0.054174
    14  H    0.052815
    15  H    0.047531
    16  H    0.058587
    17  H    0.052858
    18  H    0.049250
    19  H    0.037472
    20  H    0.046402
    21  H    0.050880
    22  H    0.042420
    23  H    0.056917
    24  H    0.175251
    25  H    0.055498
    26  H    0.051863
    27  H    0.057129
    28  H    0.054708
    29  H    0.053051
    30  H    0.050894
    31  H    0.054454
 Sum of Mulliken atomic charges =   0.00000

 Dipole moment (field-independent basis, Debye):
    X=              0.5252    Y=             -1.1410    Z=             -0.7068  Tot=              1.4413
 Quadrupole moment (field-independent basis, Debye-Ang):
   XX=            -68.4721   YY=            -72.3589   ZZ=            -65.0791
   XY=              1.2030   XZ=              0.3867   YZ=             -1.9852

 Summary of Natural Population Analysis:

                                       Natural Population
                Natural  -----------------------------------------------
    Atom  No    Charge         Core      Valence    Rydberg      Total
 -----------------------------------------------------------------------
      C    1   -0.12710      1.99997     4.12713    0.00000     6.12710
      C    2    0.01431      1.99997     3.98572    0.00000     5.98569
      C    3    0.14101      1.99989     3.85910    0.00000     5.85899
      C    4   -0.06641      1.99996     4.06645    0.00000     6.06641
      C    5   -0.01807      1.99996     4.01811    0.00000     6.01807
      C    6   -0.06157      1.99996     4.06160    0.00000     6.06157
      C    7   -0.08866      1.99996     4.08870    0.00000     6.08866
      O    8   -0.33213      1.99999     6.33214    0.00000     8.33213
      C    9    0.01944      1.99996     3.98060    0.00000     5.98056
      C   10   -0.13176      1.99997     4.13179    0.00000     6.13176
      C   11   -0.12887      1.99997     4.12890    0.00000     6.12887
      H   12    0.03726      0.00000     0.96274    0.00000     0.96274
      H   13    0.03689      0.00000     0.96311    0.00000     0.96311
      H   14    0.03559      0.00000     0.96441    0.00000     0.96441
      H   15    0.02353      0.00000     0.97647    0.00000     0.97647
      H   16    0.02334      0.00000     0.97666    0.00000     0.97666
      H   17    0.03175      0.00000     0.96825    0.00000     0.96825
      H   18    0.02826      0.00000     0.97174    0.00000     0.97174
      H   19    0.01318      0.00000     0.98682    0.00000     0.98682
      H   20    0.02569      0.00000     0.97431    0.00000     0.97431
      H   21    0.03011      0.00000     0.96989    0.00000     0.96989
      H   22    0.02279      0.00000     0.97721    0.00000     0.97721
      H   23    0.03598      0.00000     0.96402    0.00000     0.96402
      H   24    0.18762      0.00000     0.81238    0.00000     0.81238
      H   25    0.02949      0.00000     0.97051    0.00000     0.97051
      H   26    0.03468      0.00000     0.96532    0.00000     0.96532
      H   27    0.03943      0.00000     0.96057    0.00000     0.96057
      H   28    0.03780      0.00000     0.96220    0.00000     0.96220
      H   29    0.03553      0.00000     0.96447    0.00000     0.96447
      H   30    0.03372      0.00000     0.96628    0.00000     0.96628
      H   31    0.03720      0.00000     0.96280    0.00000     0.96280
 =======================================================================
   * Total *    0.00000     21.99957    66.00043    0.00000    88.00000

 Normal termination of Gaussian 09 at Tue Aug  3 16:31:26 2021.
