 Gaussian 09, Revision C.01,
 Gaussian 09:  EM64L-G09RevC.01 23-Sep-2011

 ------------------------
 # rhf/STO-3G nmr pop=nbo
 ------------------------

 99/9=1/99;
 -------
 comment
 -------
 Charge =  0 Multiplicity = 1

                         Standard orientation:
 ---------------------------------------------------------------------
 Center     Atomic      Atomic             Coordinates (Angstroms)
 Number     Number       Type             X           Y           Z
 ---------------------------------------------------------------------
      1          6           0        3.001923   -0.395895   -0.482962
      2          6           0        1.851544   -0.892360    0.396833
      3          6           0        0.343785    1.197518    0.526704
      4          6           0       -0.103809   -0.616272   -1.228094
      5          6           0       -0.697492    0.555296   -0.420411
      6          6           0        0.765299   -1.585006   -0.428044
      7          6           0        1.248393    0.214399    1.272359
      8          8           0        1.189990    2.064418   -0.237366
      9          6           0       -2.063545    0.266578    0.276586
     10          6           0       -2.113089   -0.950463    1.196479
     11          6           0       -3.195211    0.149429   -0.756827
     12          1           0        3.764361    0.105467    0.122458
     13          1           0        3.484666   -1.239782   -0.988129
     14          1           0        2.671777    0.301055   -1.257359
     15          1           0        2.285491   -1.642168    1.072211
     16          1           0       -0.154546    1.840295    1.261446
     17          1           0        0.512037   -0.193808   -2.032958
     18          1           0       -0.894087   -1.179205   -1.735759
     19          1           0       -0.931088    1.323728   -1.173491
     20          1           0        1.222484   -2.307550   -1.115548
     21          1           0        0.138440   -2.176721    0.245907
     22          1           0        2.062539    0.764503    1.761703
     23          1           0        0.677047   -0.258055    2.077749
     24          1           0        0.629951    2.762672   -0.617157
     25          1           0       -2.305215    1.144524    0.891210
     26          1           0       -2.008475   -1.885546    0.638866
     27          1           0       -1.346454   -0.910475    1.971003
     28          1           0       -3.079953   -0.994585    1.711490
     29          1           0       -3.083010   -0.738036   -1.387023
     30          1           0       -3.225452    1.029707   -1.407453
     31          1           0       -4.167227    0.079287   -0.255978
 ---------------------------------------------------------------------

 SCF Done:  E(RHF) =  -459.610698346     A.U. after   10 cycles

      1  C    Isotropic =   222.0226   Anisotropy =    25.7291

      2  C    Isotropic =   216.9973   Anisotropy =     5.4764

      3  C    Isotropic =   186.7829   Anisotropy =    37.4001

      4  C    Isotropic =   222.1949   Anisotropy =    13.8776

      5  C    Isotropic =   208.6251   Anisotropy =    19.0710

      6  C    Isotropic =   218.8224   Anisotropy =    11.6261

      7  C    Isotropic =   217.4502   Anisotropy =    10.2487

      8  O    Isotropic =   345.0005   Anisotropy =    90.7721

      9  C    Isotropic =   211.9051   Anisotropy =    19.0730

     10  C    Isotropic =   223.2621   Anisotropy =    18.7638

     11  C    Isotropic =   220.2989   Anisotropy =    28.8117

     12  H    Isotropic =    32.4212   Anisotropy =    13.9929

     13  H    Isotropic =    32.6052   Anisotropy =    14.8166

     14  H    Isotropic =    31.9822   Anisotropy =     7.9093

     15  H    Isotropic =    32.4296   Anisotropy =    14.9604

     16  H    Isotropic =    32.0318   Anisotropy =    10.0789

     17  H    Isotropic =    32.3123   Anisotropy =    12.5238

     18  H    Isotropic =    32.5934   Anisotropy =    12.5496

     19  H    Isotropic =    32.9472   Anisotropy =    11.0606

     20  H    Isotropic =    32.5633   Anisotropy =    14.6963

     21  H    Isotropic =    32.6957   Anisotropy =    11.4384

     22  H    Isotropic =    32.0191   Anisotropy =    14.1654

     23  H    Isotropic =    32.5555   Anisotropy =    11.8325

     24  H    Isotropic =    34.9793   Anisotropy =    18.3652

     25  H    Isotropic =    32.7187   Anisotropy =    11.7566

     26  H    Isotropic =    32.7687   Anisotropy =     8.8797

     27  H    Isotropic =    32.7654   Anisotropy =     9.6345

     28  H    Isotropic =    32.5913   Anisotropy =    14.9034

     29  H    Isotropic =    32.4894   Anisotropy =     9.9952

     30  H    Isotropic =    32.6318   Anisotropy =    12.9993

     31  H    Isotropic =    32.4692   Anisotropy =    14.4019

 The electronic state is 1-A.
 Alpha  occ. eigenvalues --  -20.23387 -11.08484 -11.05024 -11.04407 -11.04043
 Alpha  occ. eigenvalues --  -11.03636 -11.03482 -11.03324 -11.03245 -11.03096
 Alpha  occ. eigenvalues --  -11.01862  -1.27554  -1.07763  -1.03490  -0.96387
 Alpha  occ. eigenvalues --   -0.94800  -0.89456  -0.87859  -0.80383  -0.77925
 Alpha  occ. eigenvalues --   -0.73174  -0.66620  -0.63348  -0.61345  -0.60060
 Alpha  occ. eigenvalues --   -0.56760  -0.56226  -0.54583  -0.53368  -0.51273
 Alpha  occ. eigenvalues --   -0.50739  -0.50233  -0.49300  -0.47843  -0.46104
 Alpha  occ. eigenvalues --   -0.45855  -0.45262  -0.42786  -0.41875  -0.40294
 Alpha  occ. eigenvalues --   -0.39291  -0.38356  -0.36185  -0.32965
 Alpha virt. eigenvalues --    0.52746   0.56450   0.56766   0.59407   0.60421
 Alpha virt. eigenvalues --    0.61436   0.62259   0.63776   0.65116   0.66783
 Alpha virt. eigenvalues --    0.68168   0.70235   0.70642   0.71209   0.72129

 Mulliken atomic charges:
              1
     1  C   -0.174232
     2  C   -0.021080
     3  C    0.075030
     4  C   -0.102902
     5  C   -0.040880
     6  C   -0.102458
     7  C   -0.105851
     8  O   -0.314017
     9  C   -0.020548
    10  C   -0.177088
    11  C   -0.172522
    12  H    0.053840
    13  H    0.048346
    14  H    0.065036
    15  H    0.046730
    16  H    0.040827
    17  H    0.053286
    18  H    0.051285
    19  H    0.042668
    20  H    0.049817
    21  H    0.048422
    22  H    0.061229
    23  H    0.051540
    24  H    0.173125
    25  H    0.045574
    26  H    0.056043
    27  H    0.054971
    28  H    0.054839
    29  H    0.053645
    30  H    0.051409
    31  H    0.053917
 Sum of Mulliken atomic charges =   0.00000

 Dipole moment (field-independent basis, Debye):
    X=             -1.4140    Y=              0.0591    Z=              0.1451  Tot=              1.4226
 Quadrupole moment (field-independent basis, Debye-Ang):
   XX=            -70.5387   YY=            -66.0530   ZZ=            -66.9812
   XY=             -2.9562   XZ=              0.4215   YZ=             -0.4386

 Summary of Natural Population Analysis:

                                       Natural Population
                Natural  -----------------------------------------------
    Atom  No    Charge         Core      Valence    Rydberg      Total
 -----------------------------------------------------------------------
      C    1   -0.13005      1.99997     4.13008    0.00000     6.13005
      C    2    0.01732      1.99997     3.98271    0.00000     5.98268
      C    3    0.14400      1.99989     3.85611    0.00000     5.85600
      C    4   -0.06575      1.99995     4.06579    0.00000     6.06575
      C    5   -0.01938      1.99995     4.01943    0.00000     6.01938
      C    6   -0.06605      1.99996     4.06609    0.00000     6.06605
      C    7   -0.08199      1.99995     4.08204    0.00000     6.08199
      O    8   -0.33549      1.99999     6.33549    0.00000     8.33549
      C    9    0.02097      1.99996     3.97907    0.00000     5.97903
      C   10   -0.13392      1.99997     4.13395    0.00000     6.13392
      C   11   -0.12779      1.99997     4.12782    0.00000     6.12779
      H   12    0.03677      0.00000     0.96323    0.00000     0.96323
      H   13    0.03158      0.00000     0.96842    0.00000     0.96842
      H   14    0.04630      0.00000     0.95370    0.00000     0.95370
      H   15    0.02271      0.00000     0.97729    0.00000     0.97729
      H   16    0.00509      0.00000     0.99491    0.00000     0.99491
      H   17    0.03211      0.00000     0.96789    0.00000     0.96789
      H   18    0.03036      0.00000     0.96964    0.00000     0.96964
      H   19    0.01840      0.00000     0.98160    0.00000     0.98160
      H   20    0.02967      0.00000     0.97033    0.00000     0.97033
      H   21    0.02732      0.00000     0.97268    0.00000     0.97268
      H   22    0.04028      0.00000     0.95972    0.00000     0.95972
      H   23    0.03106      0.00000     0.96894    0.00000     0.96894
      H   24    0.18540      0.00000     0.81460    0.00000     0.81460
      H   25    0.02036      0.00000     0.97964    0.00000     0.97964
      H   26    0.03889      0.00000     0.96111    0.00000     0.96111
      H   27    0.03731      0.00000     0.96269    0.00000     0.96269
      H   28    0.03818      0.00000     0.96182    0.00000     0.96182
      H   29    0.03587      0.00000     0.96413    0.00000     0.96413
      H   30    0.03396      0.00000     0.96604    0.00000     0.96604
      H   31    0.03649      0.00000     0.96351    0.00000     0.96351
 =======================================================================
   * Total *    0.00000     21.99953    66.00047    0.00000    88.00000

 Normal termination of Gaussian 09 at Tue Aug  3 16:33:19 2021.
