 Gaussian 09, Revision C.01,
 Gaussian 09:  EM64L-G09RevC.01 23-Sep-2011

 ------------------------
 # rhf/STO-3G nmr pop=nbo
 ------------------------

 99/9=1/99;
 -------
 comment
 -------
 Charge =  0 Multiplicity = 1

                         Standard orientation:
 ---------------------------------------------------------------------
 Center     Atomic      Atomic             Coordinates (Angstroms)
 Number     Number       Type             X           Y           Z
 ---------------------------------------------------------------------
      1          6           0       -2.827208   -0.079167    1.035944
      2          6           0       -2.247701   -0.519940   -0.311477
      3          6           0       -0.259294    1.110541   -0.436378
      4          6           0        0.183453   -1.380432   -0.375782
      5          6           0        0.550985   -0.023399    0.238537
      6          6           0       -1.293875   -1.717267   -0.148586
      7          6           0       -1.581463    0.643122   -1.058540
      8          8           0       -0.547794    2.122511    0.531200
      9          6           0        2.079070    0.278690    0.227084
     10          6           0        2.735342    0.117070   -1.147919
     11          6           0        2.827334   -0.584918    1.249940
     12          1           0       -3.499382    0.775941    0.908624
     13          1           0       -3.408037   -0.891717    1.486067
     14          1           0       -2.048203    0.204177    1.749288
     15          1           0       -3.101737   -0.854483   -0.915827
     16          1           0        0.318851    1.602383   -1.225232
     17          1           0        0.791804   -2.186501    0.047793
     18          1           0        0.383374   -1.372306   -1.454539
     19          1           0        0.257969   -0.051780    1.298031
     20          1           0       -1.413105   -2.166282    0.845450
     21          1           0       -1.575697   -2.501299   -0.863045
     22          1           0       -2.282594    1.482974   -1.139322
     23          1           0       -1.378524    0.305829   -2.083911
     24          1           0        0.298631    2.450475    0.878499
     25          1           0        2.218249    1.322598    0.537217
     26          1           0        2.729969   -0.926414   -1.479265
     27          1           0        2.234793    0.719395   -1.910898
     28          1           0        3.781160    0.441999   -1.110259
     29          1           0        2.801971   -1.646471    0.985542
     30          1           0        2.394062   -0.470753    2.249071
     31          1           0        3.878948   -0.283651    1.310171
 ---------------------------------------------------------------------

 SCF Done:  E(RHF) =  -459.610887245     A.U. after   10 cycles

      1  C    Isotropic =   220.0696   Anisotropy =    26.4980

      2  C    Isotropic =   216.9356   Anisotropy =     4.5235

      3  C    Isotropic =   188.6603   Anisotropy =    33.6930

      4  C    Isotropic =   220.7069   Anisotropy =    11.8640

      5  C    Isotropic =   208.8725   Anisotropy =    14.3393

      6  C    Isotropic =   216.8697   Anisotropy =    16.5834

      7  C    Isotropic =   216.5285   Anisotropy =    11.7675

      8  O    Isotropic =   355.8954   Anisotropy =    66.8213

      9  C    Isotropic =   213.9776   Anisotropy =    14.1887

     10  C    Isotropic =   224.2453   Anisotropy =    20.7200

     11  C    Isotropic =   221.2654   Anisotropy =    27.1414

     12  H    Isotropic =    32.3452   Anisotropy =    13.9412

     13  H    Isotropic =    32.4663   Anisotropy =    14.4194

     14  H    Isotropic =    32.2649   Anisotropy =     7.2338

     15  H    Isotropic =    32.3044   Anisotropy =    15.4754

     16  H    Isotropic =    31.9902   Anisotropy =     9.0484

     17  H    Isotropic =    32.6123   Anisotropy =    12.3861

     18  H    Isotropic =    32.9345   Anisotropy =    10.4345

     19  H    Isotropic =    32.6404   Anisotropy =     7.7983

     20  H    Isotropic =    32.5535   Anisotropy =    12.1218

     21  H    Isotropic =    32.1441   Anisotropy =    15.0799

     22  H    Isotropic =    31.9886   Anisotropy =    14.0380

     23  H    Isotropic =    32.4091   Anisotropy =    12.6316

     24  H    Isotropic =    34.6078   Anisotropy =    16.9358

     25  H    Isotropic =    33.0136   Anisotropy =    11.3114

     26  H    Isotropic =    32.7969   Anisotropy =    10.2044

     27  H    Isotropic =    32.7205   Anisotropy =    10.9298

     28  H    Isotropic =    32.6383   Anisotropy =    14.7387

     29  H    Isotropic =    32.5398   Anisotropy =    10.1994

     30  H    Isotropic =    32.6134   Anisotropy =    12.4574

     31  H    Isotropic =    32.4873   Anisotropy =    14.4824

 The electronic state is 1-A.
 Alpha  occ. eigenvalues --  -20.23378 -11.08288 -11.05297 -11.04321 -11.04106
 Alpha  occ. eigenvalues --  -11.03720 -11.03612 -11.03501 -11.03442 -11.03267
 Alpha  occ. eigenvalues --  -11.02191  -1.27516  -1.08095  -1.03831  -0.96461
 Alpha  occ. eigenvalues --   -0.94463  -0.89390  -0.88083  -0.80428  -0.78007
 Alpha  occ. eigenvalues --   -0.72978  -0.68044  -0.62743  -0.62014  -0.59262
 Alpha  occ. eigenvalues --   -0.57702  -0.55875  -0.54632  -0.53206  -0.51547
 Alpha  occ. eigenvalues --   -0.51342  -0.50011  -0.49502  -0.48173  -0.46804
 Alpha  occ. eigenvalues --   -0.45161  -0.43946  -0.43298  -0.42306  -0.41238
 Alpha  occ. eigenvalues --   -0.39784  -0.38506  -0.35921  -0.32894
 Alpha virt. eigenvalues --    0.53246   0.55672   0.57357   0.58513   0.60156
 Alpha virt. eigenvalues --    0.61701   0.63268   0.64434   0.64895   0.66289
 Alpha virt. eigenvalues --    0.67433   0.67564   0.70560   0.70683   0.71498

 Mulliken atomic charges:
              1
     1  C   -0.171714
     2  C   -0.024145
     3  C    0.074301
     4  C   -0.102071
     5  C   -0.043809
     6  C   -0.101759
     7  C   -0.104792
     8  O   -0.313644
     9  C   -0.020280
    10  C   -0.175815
    11  C   -0.173148
    12  H    0.055534
    13  H    0.049585
    14  H    0.058543
    15  H    0.047504
    16  H    0.041231
    17  H    0.051775
    18  H    0.047964
    19  H    0.052420
    20  H    0.049779
    21  H    0.048445
    22  H    0.064238
    23  H    0.049939
    24  H    0.173404
    25  H    0.038869
    26  H    0.056216
    27  H    0.053502
    28  H    0.055227
    29  H    0.054867
    30  H    0.053352
    31  H    0.054480
 Sum of Mulliken atomic charges =   0.00000

 Dipole moment (field-independent basis, Debye):
    X=              1.2526    Y=             -0.5804    Z=             -0.3820  Tot=              1.4324
 Quadrupole moment (field-independent basis, Debye-Ang):
   XX=            -68.0598   YY=            -68.9662   ZZ=            -67.3008
   XY=              3.2980   XZ=              1.5908   YZ=             -0.2825

 Summary of Natural Population Analysis:

                                       Natural Population
                Natural  -----------------------------------------------
    Atom  No    Charge         Core      Valence    Rydberg      Total
 -----------------------------------------------------------------------
      C    1   -0.12710      1.99997     4.12713    0.00000     6.12710
      C    2    0.01395      1.99997     3.98609    0.00000     5.98605
      C    3    0.14298      1.99988     3.85714    0.00000     5.85702
      C    4   -0.06445      1.99996     4.06449    0.00000     6.06445
      C    5   -0.02355      1.99995     4.02360    0.00000     6.02355
      C    6   -0.06401      1.99996     4.06405    0.00000     6.06401
      C    7   -0.08074      1.99996     4.08078    0.00000     6.08074
      O    8   -0.33492      1.99999     6.33492    0.00000     8.33492
      C    9    0.02165      1.99996     3.97839    0.00000     5.97835
      C   10   -0.13209      1.99997     4.13212    0.00000     6.13209
      C   11   -0.12901      1.99997     4.12904    0.00000     6.12901
      H   12    0.03801      0.00000     0.96199    0.00000     0.96199
      H   13    0.03256      0.00000     0.96744    0.00000     0.96744
      H   14    0.04034      0.00000     0.95966    0.00000     0.95966
      H   15    0.02327      0.00000     0.97673    0.00000     0.97673
      H   16    0.00517      0.00000     0.99483    0.00000     0.99483
      H   17    0.03091      0.00000     0.96909    0.00000     0.96909
      H   18    0.02718      0.00000     0.97282    0.00000     0.97282
      H   19    0.02735      0.00000     0.97265    0.00000     0.97265
      H   20    0.02880      0.00000     0.97120    0.00000     0.97120
      H   21    0.02774      0.00000     0.97226    0.00000     0.97226
      H   22    0.04302      0.00000     0.95698    0.00000     0.95698
      H   23    0.02970      0.00000     0.97030    0.00000     0.97030
      H   24    0.18569      0.00000     0.81431    0.00000     0.81431
      H   25    0.01427      0.00000     0.98573    0.00000     0.98573
      H   26    0.03876      0.00000     0.96124    0.00000     0.96124
      H   27    0.03610      0.00000     0.96390    0.00000     0.96390
      H   28    0.03814      0.00000     0.96186    0.00000     0.96186
      H   29    0.03723      0.00000     0.96277    0.00000     0.96277
      H   30    0.03592      0.00000     0.96408    0.00000     0.96408
      H   31    0.03714      0.00000     0.96286    0.00000     0.96286
 =======================================================================
   * Total *    0.00000     21.99954    66.00046    0.00000    88.00000

 Normal termination of Gaussian 09 at Tue Aug  3 16:33:43 2021.
