 Gaussian 09, Revision C.01,
 Gaussian 09:  EM64L-G09RevC.01 23-Sep-2011

 ------------------------
 # rhf/STO-3G nmr pop=nbo
 ------------------------

 99/9=1/99;
 -------
 comment
 -------
 Charge =  0 Multiplicity = 1

                         Standard orientation:
 ---------------------------------------------------------------------
 Center     Atomic      Atomic             Coordinates (Angstroms)
 Number     Number       Type             X           Y           Z
 ---------------------------------------------------------------------
      1          6           0        3.375351    0.247367    0.216681
      2          6           0        2.080910   -0.542886    0.414949
      3          6           0       -0.032021    0.927160    0.316600
      4          6           0        0.061677   -1.355269   -0.859657
      5          6           0       -0.758705   -0.066641   -0.625267
      6          6           0        1.553593   -1.057048   -0.932365
      7          6           0        1.023987    0.259113    1.200633
      8          8           0        0.626084    1.925439   -0.469369
      9          6           0       -2.214099   -0.411238   -0.195467
     10          6           0       -3.148533    0.789262   -0.390853
     11          6           0       -2.343875   -0.932723    1.238606
     12          1           0        3.209640    1.152470   -0.375977
     13          1           0        3.798914    0.547247    1.181028
     14          1           0        4.124256   -0.362092   -0.300381
     15          1           0        2.338346   -1.415229    1.031472
     16          1           0       -0.737106    1.466104    0.956176
     17          1           0       -0.264829   -1.823567   -1.796300
     18          1           0       -0.113898   -2.092552   -0.068812
     19          1           0       -0.835868    0.412094   -1.612995
     20          1           0        1.737365   -0.325442   -1.729370
     21          1           0        2.101003   -1.964674   -1.213861
     22          1           0        1.518800    1.014439    1.823588
     23          1           0        0.515063   -0.424087    1.892268
     24          1           0       -0.059649    2.406001   -0.963871
     25          1           0       -2.577030   -1.202964   -0.865183
     26          1           0       -2.897953    1.617861    0.278411
     27          1           0       -3.099869    1.157328   -1.421071
     28          1           0       -4.187315    0.503967   -0.191552
     29          1           0       -2.065496   -0.173807    1.976240
     30          1           0       -1.722471   -1.816243    1.407211
     31          1           0       -3.380282   -1.222951    1.444767
 ---------------------------------------------------------------------

 SCF Done:  E(RHF) =  -459.612313803     A.U. after   10 cycles

      1  C    Isotropic =   220.1476   Anisotropy =    28.1207

      2  C    Isotropic =   216.0110   Anisotropy =     8.8989

      3  C    Isotropic =   189.0364   Anisotropy =    39.0522

      4  C    Isotropic =   217.9018   Anisotropy =    15.5696

      5  C    Isotropic =   206.3050   Anisotropy =    10.3894

      6  C    Isotropic =   217.1342   Anisotropy =    16.1133

      7  C    Isotropic =   216.7419   Anisotropy =    14.8667

      8  O    Isotropic =   346.1513   Anisotropy =    84.9579

      9  C    Isotropic =   213.4400   Anisotropy =    16.0293

     10  C    Isotropic =   221.5041   Anisotropy =    26.8341

     11  C    Isotropic =   224.5826   Anisotropy =    19.8522

     12  H    Isotropic =    32.0615   Anisotropy =     9.6601

     13  H    Isotropic =    32.4504   Anisotropy =    14.0144

     14  H    Isotropic =    32.4125   Anisotropy =    14.3254

     15  H    Isotropic =    32.4071   Anisotropy =    13.5752

     16  H    Isotropic =    32.0037   Anisotropy =     8.8377

     17  H    Isotropic =    32.4029   Anisotropy =    14.2948

     18  H    Isotropic =    32.7149   Anisotropy =     9.8011

     19  H    Isotropic =    32.8016   Anisotropy =     9.8148

     20  H    Isotropic =    32.4370   Anisotropy =    10.1857

     21  H    Isotropic =    32.2822   Anisotropy =    15.0323

     22  H    Isotropic =    32.1251   Anisotropy =    13.1421

     23  H    Isotropic =    32.5356   Anisotropy =    11.0494

     24  H    Isotropic =    35.0491   Anisotropy =    17.7289

     25  H    Isotropic =    32.5181   Anisotropy =    12.2599

     26  H    Isotropic =    32.7123   Anisotropy =     9.6773

     27  H    Isotropic =    32.7246   Anisotropy =    12.8194

     28  H    Isotropic =    32.4868   Anisotropy =    14.5384

     29  H    Isotropic =    32.9618   Anisotropy =     9.0346

     30  H    Isotropic =    32.6369   Anisotropy =    10.5531

     31  H    Isotropic =    32.6294   Anisotropy =    14.8835

 The electronic state is 1-A.
 Alpha  occ. eigenvalues --  -20.23442 -11.08398 -11.05036 -11.04227 -11.03906
 Alpha  occ. eigenvalues --  -11.03507 -11.03492 -11.03415 -11.03381 -11.02977
 Alpha  occ. eigenvalues --  -11.02003  -1.27594  -1.07800  -1.03606  -0.96691
 Alpha  occ. eigenvalues --   -0.94372  -0.89471  -0.87471  -0.79542  -0.78420
 Alpha  occ. eigenvalues --   -0.72827  -0.68073  -0.64226  -0.61048  -0.58197
 Alpha  occ. eigenvalues --   -0.57623  -0.55793  -0.54088  -0.53341  -0.51769
 Alpha  occ. eigenvalues --   -0.50747  -0.50201  -0.49185  -0.48363  -0.46579
 Alpha  occ. eigenvalues --   -0.45383  -0.44416  -0.42879  -0.42059  -0.40140
 Alpha  occ. eigenvalues --   -0.39674  -0.39239  -0.35764  -0.32884
 Alpha virt. eigenvalues --    0.52929   0.56641   0.57112   0.59519   0.60782
 Alpha virt. eigenvalues --    0.61489   0.62193   0.64673   0.64808   0.66587
 Alpha virt. eigenvalues --    0.67907   0.68629   0.69487   0.70965   0.72304

 Mulliken atomic charges:
              1
     1  C   -0.171780
     2  C   -0.020112
     3  C    0.073115
     4  C   -0.100089
     5  C   -0.041276
     6  C   -0.100404
     7  C   -0.105935
     8  O   -0.314258
     9  C   -0.020325
    10  C   -0.174907
    11  C   -0.176518
    12  H    0.064568
    13  H    0.049935
    14  H    0.049968
    15  H    0.044059
    16  H    0.042688
    17  H    0.048778
    18  H    0.046685
    19  H    0.045526
    20  H    0.054562
    21  H    0.048871
    22  H    0.059737
    23  H    0.051938
    24  H    0.173730
    25  H    0.049231
    26  H    0.051161
    27  H    0.051266
    28  H    0.055429
    29  H    0.053756
    30  H    0.054964
    31  H    0.055639
 Sum of Mulliken atomic charges =   0.00000

 Dipole moment (field-independent basis, Debye):
    X=             -1.3900    Y=             -0.3783    Z=             -0.0210  Tot=              1.4407
 Quadrupole moment (field-independent basis, Debye-Ang):
   XX=            -69.1009   YY=            -67.7079   ZZ=            -66.6474
   XY=             -2.8095   XZ=              0.9784   YZ=             -0.5977

 Summary of Natural Population Analysis:

                                       Natural Population
                Natural  -----------------------------------------------
    Atom  No    Charge         Core      Valence    Rydberg      Total
 -----------------------------------------------------------------------
      C    1   -0.12736      1.99997     4.12738    0.00000     6.12736
      C    2    0.01862      1.99996     3.98141    0.00000     5.98138
      C    3    0.14191      1.99989     3.85820    0.00000     5.85809
      C    4   -0.06228      1.99996     4.06232    0.00000     6.06228
      C    5   -0.02014      1.99995     4.02019    0.00000     6.02014
      C    6   -0.06406      1.99996     4.06410    0.00000     6.06406
      C    7   -0.08177      1.99995     4.08182    0.00000     6.08177
      O    8   -0.33560      1.99999     6.33560    0.00000     8.33560
      C    9    0.02020      1.99996     3.97984    0.00000     5.97980
      C   10   -0.13043      1.99997     4.13046    0.00000     6.13043
      C   11   -0.13259      1.99997     4.13262    0.00000     6.13259
      H   12    0.04593      0.00000     0.95407    0.00000     0.95407
      H   13    0.03293      0.00000     0.96707    0.00000     0.96707
      H   14    0.03299      0.00000     0.96701    0.00000     0.96701
      H   15    0.01972      0.00000     0.98028    0.00000     0.98028
      H   16    0.00686      0.00000     0.99314    0.00000     0.99314
      H   17    0.02808      0.00000     0.97192    0.00000     0.97192
      H   18    0.02546      0.00000     0.97454    0.00000     0.97454
      H   19    0.02099      0.00000     0.97901    0.00000     0.97901
      H   20    0.03326      0.00000     0.96674    0.00000     0.96674
      H   21    0.02857      0.00000     0.97143    0.00000     0.97143
      H   22    0.03855      0.00000     0.96145    0.00000     0.96145
      H   23    0.03156      0.00000     0.96844    0.00000     0.96844
      H   24    0.18609      0.00000     0.81391    0.00000     0.81391
      H   25    0.02395      0.00000     0.97605    0.00000     0.97605
      H   26    0.03381      0.00000     0.96619    0.00000     0.96619
      H   27    0.03406      0.00000     0.96594    0.00000     0.96594
      H   28    0.03810      0.00000     0.96190    0.00000     0.96190
      H   29    0.03644      0.00000     0.96356    0.00000     0.96356
      H   30    0.03752      0.00000     0.96248    0.00000     0.96248
      H   31    0.03864      0.00000     0.96136    0.00000     0.96136
 =======================================================================
   * Total *    0.00000     21.99955    66.00045    0.00000    88.00000

 Normal termination of Gaussian 09 at Tue Aug  3 16:33:18 2021.
