 Gaussian 09, Revision C.01,
 Gaussian 09:  EM64L-G09RevC.01 23-Sep-2011

 ------------------------
 # rhf/STO-3G nmr pop=nbo
 ------------------------

 99/9=1/99;
 -------
 comment
 -------
 Charge =  0 Multiplicity = 1

                         Standard orientation:
 ---------------------------------------------------------------------
 Center     Atomic      Atomic             Coordinates (Angstroms)
 Number     Number       Type             X           Y           Z
 ---------------------------------------------------------------------
      1          6           0        3.419302   -0.675543   -0.370264
      2          6           0        2.193552   -0.277702    0.453509
      3          6           0        0.152126    1.214570    0.270313
      4          6           0        0.073605   -1.182040   -0.636609
      5          6           0       -0.675528    0.165491   -0.512758
      6          6           0        1.127259   -1.385579    0.449613
      7          6           0        1.641301    1.069650   -0.033163
      8          8           0       -0.244581    2.530837   -0.110281
      9          6           0       -2.129409    0.037069    0.037101
     10          6           0       -2.224032   -0.659760    1.397266
     11          6           0       -3.049946   -0.669600   -0.966781
     12          1           0        3.871321   -1.591979    0.023636
     13          1           0        3.156030   -0.852118   -1.418537
     14          1           0        4.179990    0.111730   -0.338426
     15          1           0        2.530305   -0.155952    1.491775
     16          1           0        0.001990    1.127680    1.351423
     17          1           0        0.576833   -1.209702   -1.612354
     18          1           0       -0.615610   -2.031804   -0.638413
     19          1           0       -0.787029    0.553359   -1.536795
     20          1           0        1.593351   -2.371481    0.335952
     21          1           0        0.628759   -1.399496    1.426846
     22          1           0        1.798354    1.191625   -1.113814
     23          1           0        2.204041    1.890290    0.430141
     24          1           0       -1.152715    2.671565    0.204712
     25          1           0       -2.535040    1.048725    0.162975
     26          1           0       -1.902948   -1.704578    1.343587
     27          1           0       -1.618127   -0.153946    2.153823
     28          1           0       -3.259408   -0.654559    1.756159
     29          1           0       -2.776313   -1.719079   -1.110088
     30          1           0       -3.018284   -0.172293   -1.941858
     31          1           0       -4.088217   -0.644019   -0.617857
 ---------------------------------------------------------------------

 SCF Done:  E(RHF) =  -459.611550426     A.U. after   10 cycles

      1  C    Isotropic =   220.9693   Anisotropy =    27.1974

      2  C    Isotropic =   216.4795   Anisotropy =     9.3463

      3  C    Isotropic =   189.2057   Anisotropy =    41.9440

      4  C    Isotropic =   220.5791   Anisotropy =    15.8006

      5  C    Isotropic =   208.6463   Anisotropy =    15.1919

      6  C    Isotropic =   217.6292   Anisotropy =    15.1565

      7  C    Isotropic =   216.2763   Anisotropy =    21.0731

      8  O    Isotropic =   362.5744   Anisotropy =    58.2100

      9  C    Isotropic =   214.6177   Anisotropy =    12.8696

     10  C    Isotropic =   224.6006   Anisotropy =    19.6872

     11  C    Isotropic =   221.3455   Anisotropy =    27.2630

     12  H    Isotropic =    32.5330   Anisotropy =    14.2215

     13  H    Isotropic =    32.5252   Anisotropy =    10.2052

     14  H    Isotropic =    32.3574   Anisotropy =    14.0545

     15  H    Isotropic =    32.3959   Anisotropy =    13.4788

     16  H    Isotropic =    32.1497   Anisotropy =     6.4737

     17  H    Isotropic =    32.4651   Anisotropy =    12.4598

     18  H    Isotropic =    32.6465   Anisotropy =    11.6637

     19  H    Isotropic =    32.2105   Anisotropy =    10.4256

     20  H    Isotropic =    32.6851   Anisotropy =    13.7643

     21  H    Isotropic =    32.7336   Anisotropy =    10.5783

     22  H    Isotropic =    32.3868   Anisotropy =    10.3205

     23  H    Isotropic =    31.8196   Anisotropy =    14.0524

     24  H    Isotropic =    34.4666   Anisotropy =    17.0242

     25  H    Isotropic =    32.9853   Anisotropy =    11.7107

     26  H    Isotropic =    32.8064   Anisotropy =     9.1316

     27  H    Isotropic =    32.7539   Anisotropy =    10.4243

     28  H    Isotropic =    32.6722   Anisotropy =    14.7993

     29  H    Isotropic =    32.5268   Anisotropy =    10.0788

     30  H    Isotropic =    32.5555   Anisotropy =    13.0974

     31  H    Isotropic =    32.4941   Anisotropy =    14.4934

 The electronic state is 1-A.
 Alpha  occ. eigenvalues --  -20.23645 -11.08373 -11.05176 -11.04558 -11.04106
 Alpha  occ. eigenvalues --  -11.03677 -11.03552 -11.03506 -11.03444 -11.03341
 Alpha  occ. eigenvalues --  -11.03055  -1.27692  -1.08274  -1.03940  -0.96609
 Alpha  occ. eigenvalues --   -0.94661  -0.89465  -0.87951  -0.80947  -0.77841
 Alpha  occ. eigenvalues --   -0.72769  -0.68513  -0.63597  -0.62066  -0.59137
 Alpha  occ. eigenvalues --   -0.57713  -0.55589  -0.54824  -0.53642  -0.51516
 Alpha  occ. eigenvalues --   -0.50679  -0.50546  -0.49513  -0.48520  -0.47691
 Alpha  occ. eigenvalues --   -0.45945  -0.43494  -0.42879  -0.42206  -0.40931
 Alpha  occ. eigenvalues --   -0.39780  -0.38795  -0.36718  -0.32975
 Alpha virt. eigenvalues --    0.53244   0.55563   0.57476   0.57894   0.60211
 Alpha virt. eigenvalues --    0.60995   0.62224   0.64853   0.65573   0.66891
 Alpha virt. eigenvalues --    0.67173   0.68854   0.69763   0.71124   0.71761

 Mulliken atomic charges:
              1
     1  C   -0.170535
     2  C   -0.024695
     3  C    0.076817
     4  C   -0.104009
     5  C   -0.042850
     6  C   -0.102579
     7  C   -0.105965
     8  O   -0.312827
     9  C   -0.021081
    10  C   -0.176883
    11  C   -0.173004
    12  H    0.052777
    13  H    0.052546
    14  H    0.054642
    15  H    0.047699
    16  H    0.039864
    17  H    0.049203
    18  H    0.052681
    19  H    0.053445
    20  H    0.051812
    21  H    0.047550
    22  H    0.055250
    23  H    0.059023
    24  H    0.176137
    25  H    0.038792
    26  H    0.055856
    27  H    0.052338
    28  H    0.055178
    29  H    0.054329
    30  H    0.054416
    31  H    0.054075
 Sum of Mulliken atomic charges =   0.00000

 Dipole moment (field-independent basis, Debye):
    X=             -0.7537    Y=             -1.0198    Z=              0.6361  Tot=              1.4187
 Quadrupole moment (field-independent basis, Debye-Ang):
   XX=            -66.0913   YY=            -71.5933   ZZ=            -67.4294
   XY=             -2.2646   XZ=             -0.3773   YZ=              1.7992

 Summary of Natural Population Analysis:

                                       Natural Population
                Natural  -----------------------------------------------
    Atom  No    Charge         Core      Valence    Rydberg      Total
 -----------------------------------------------------------------------
      C    1   -0.12546      1.99997     4.12548    0.00000     6.12546
      C    2    0.01416      1.99997     3.98588    0.00000     5.98584
      C    3    0.14472      1.99989     3.85540    0.00000     5.85528
      C    4   -0.06622      1.99995     4.06626    0.00000     6.06622
      C    5   -0.02209      1.99995     4.02214    0.00000     6.02209
      C    6   -0.06531      1.99996     4.06535    0.00000     6.06531
      C    7   -0.08283      1.99996     4.08287    0.00000     6.08283
      O    8   -0.33371      1.99999     6.33372    0.00000     8.33371
      C    9    0.02059      1.99996     3.97945    0.00000     5.97941
      C   10   -0.13320      1.99997     4.13323    0.00000     6.13320
      C   11   -0.12871      1.99997     4.12874    0.00000     6.12871
      H   12    0.03541      0.00000     0.96459    0.00000     0.96459
      H   13    0.03515      0.00000     0.96485    0.00000     0.96485
      H   14    0.03717      0.00000     0.96283    0.00000     0.96283
      H   15    0.02334      0.00000     0.97666    0.00000     0.97666
      H   16    0.00429      0.00000     0.99571    0.00000     0.99571
      H   17    0.02833      0.00000     0.97167    0.00000     0.97167
      H   18    0.03160      0.00000     0.96840    0.00000     0.96840
      H   19    0.02785      0.00000     0.97215    0.00000     0.97215
      H   20    0.03124      0.00000     0.96876    0.00000     0.96876
      H   21    0.02674      0.00000     0.97326    0.00000     0.97326
      H   22    0.03429      0.00000     0.96571    0.00000     0.96571
      H   23    0.03807      0.00000     0.96193    0.00000     0.96193
      H   24    0.18841      0.00000     0.81159    0.00000     0.81159
      H   25    0.01414      0.00000     0.98586    0.00000     0.98586
      H   26    0.03845      0.00000     0.96155    0.00000     0.96155
      H   27    0.03513      0.00000     0.96487    0.00000     0.96487
      H   28    0.03818      0.00000     0.96182    0.00000     0.96182
      H   29    0.03664      0.00000     0.96336    0.00000     0.96336
      H   30    0.03686      0.00000     0.96314    0.00000     0.96314
      H   31    0.03674      0.00000     0.96326    0.00000     0.96326
 =======================================================================
   * Total *    0.00000     21.99954    66.00046    0.00000    88.00000

 Normal termination of Gaussian 09 at Sun May 24 02:05:28 2020.
