 Gaussian 09, Revision C.01,
 Gaussian 09:  EM64L-G09RevC.01 23-Sep-2011

 ------------------------
 # rhf/STO-3G nmr pop=nbo
 ------------------------

 99/9=1/99;
 -------
 comment
 -------
 Charge =  0 Multiplicity = 1

                         Standard orientation:
 ---------------------------------------------------------------------
 Center     Atomic      Atomic             Coordinates (Angstroms)
 Number     Number       Type             X           Y           Z
 ---------------------------------------------------------------------
      1          6           0       -3.098535   -0.380625   -0.006942
      2          6           0       -1.825799   -0.567373   -0.838896
      3          6           0       -0.238184    1.246426    0.096945
      4          6           0       -0.108803   -1.102932    0.975394
      5          6           0        0.719007    0.156191    0.631613
      6          6           0       -0.902930   -1.627044   -0.220761
      7          6           0       -1.085430    0.760043   -1.085768
      8          8           0       -1.089332    1.668819    1.164143
      9          6           0        1.915402   -0.135834   -0.330677
     10          6           0        2.841633   -1.233230    0.211522
     11          6           0        2.760999    1.118483   -0.593049
     12          1           0       -3.746936    0.379745   -0.454873
     13          1           0       -3.667362   -1.316209    0.032112
     14          1           0       -2.889547   -0.083266    1.023607
     15          1           0       -2.155434   -0.943599   -1.816831
     16          1           0        0.318273    2.139086   -0.200611
     17          1           0       -0.802410   -0.866105    1.791939
     18          1           0        0.529381   -1.899342    1.370628
     19          1           0        1.139608    0.516652    1.581438
     20          1           0       -1.487573   -2.502774    0.086082
     21          1           0       -0.206034   -1.983843   -0.988662
     22          1           0       -1.813724    1.532665   -1.361816
     23          1           0       -0.428628    0.629489   -1.954812
     24          1           0       -1.677862    2.359318    0.814331
     25          1           0        1.535781   -0.479715   -1.299785
     26          1           0        3.177459   -1.002139    1.227928
     27          1           0        2.345219   -2.207819    0.223119
     28          1           0        3.730096   -1.343635   -0.420155
     29          1           0        3.087947    1.579430    0.344984
     30          1           0        2.207370    1.863875   -1.170774
     31          1           0        3.654878    0.873004   -1.177290
 ---------------------------------------------------------------------

 SCF Done:  E(RHF) =  -459.615890023     A.U. after   10 cycles

      1  C    Isotropic =   221.8044   Anisotropy =    26.3766

      2  C    Isotropic =   216.3857   Anisotropy =     5.2833

      3  C    Isotropic =   189.5847   Anisotropy =    41.8284

      4  C    Isotropic =   220.8730   Anisotropy =    14.6752

      5  C    Isotropic =   210.1643   Anisotropy =    17.6120

      6  C    Isotropic =   219.0871   Anisotropy =    14.0793

      7  C    Isotropic =   216.3814   Anisotropy =    11.0140

      8  O    Isotropic =   352.5970   Anisotropy =    95.5379

      9  C    Isotropic =   214.9729   Anisotropy =    14.6897

     10  C    Isotropic =   221.4319   Anisotropy =    25.5647

     11  C    Isotropic =   221.3983   Anisotropy =    25.8515

     12  H    Isotropic =    32.7497   Anisotropy =    13.6872

     13  H    Isotropic =    32.5624   Anisotropy =    14.7750

     14  H    Isotropic =    31.9914   Anisotropy =     7.9011

     15  H    Isotropic =    32.4491   Anisotropy =    14.7009

     16  H    Isotropic =    31.8914   Anisotropy =    10.2448

     17  H    Isotropic =    32.0668   Anisotropy =    11.8982

     18  H    Isotropic =    32.4608   Anisotropy =    13.1523

     19  H    Isotropic =    32.2102   Anisotropy =    11.4892

     20  H    Isotropic =    32.5506   Anisotropy =    14.7586

     21  H    Isotropic =    32.5703   Anisotropy =    11.2008

     22  H    Isotropic =    33.0187   Anisotropy =    13.4457

     23  H    Isotropic =    32.4750   Anisotropy =    11.0671

     24  H    Isotropic =    35.1653   Anisotropy =    18.6421

     25  H    Isotropic =    32.7127   Anisotropy =     7.9665

     26  H    Isotropic =    32.5692   Anisotropy =    12.0126

     27  H    Isotropic =    32.3153   Anisotropy =    10.6331

     28  H    Isotropic =    32.5377   Anisotropy =    14.2519

     29  H    Isotropic =    32.5766   Anisotropy =    11.8470

     30  H    Isotropic =    32.5158   Anisotropy =    10.6404

     31  H    Isotropic =    32.5559   Anisotropy =    14.2102

 The electronic state is 1-A.
 Alpha  occ. eigenvalues --  -20.23459 -11.08399 -11.04830 -11.04431 -11.04303
 Alpha  occ. eigenvalues --  -11.03806 -11.03214 -11.03084 -11.03025 -11.02923
 Alpha  occ. eigenvalues --  -11.02454  -1.27657  -1.07803  -1.03292  -0.96413
 Alpha  occ. eigenvalues --   -0.94873  -0.88796  -0.87952  -0.79591  -0.78061
 Alpha  occ. eigenvalues --   -0.74243  -0.66462  -0.63703  -0.60239  -0.59049
 Alpha  occ. eigenvalues --   -0.57723  -0.55552  -0.54487  -0.54030  -0.52492
 Alpha  occ. eigenvalues --   -0.50801  -0.49981  -0.49496  -0.48761  -0.46491
 Alpha  occ. eigenvalues --   -0.45231  -0.43358  -0.42491  -0.42226  -0.40611
 Alpha  occ. eigenvalues --   -0.39553  -0.38490  -0.36179  -0.32944
 Alpha virt. eigenvalues --    0.52016   0.56240   0.59039   0.60150   0.61296
 Alpha virt. eigenvalues --    0.61639   0.62245   0.62931   0.65016   0.66870
 Alpha virt. eigenvalues --    0.69533   0.69991   0.70523   0.71163   0.71722

 Mulliken atomic charges:
              1
     1  C   -0.176946
     2  C   -0.021818
     3  C    0.074574
     4  C   -0.103214
     5  C   -0.032225
     6  C   -0.101543
     7  C   -0.114802
     8  O   -0.315586
     9  C   -0.022103
    10  C   -0.172907
    11  C   -0.173796
    12  H    0.048464
    13  H    0.051387
    14  H    0.065562
    15  H    0.046710
    16  H    0.043032
    17  H    0.059059
    18  H    0.051504
    19  H    0.055098
    20  H    0.050486
    21  H    0.045503
    22  H    0.045807
    23  H    0.051264
    24  H    0.175795
    25  H    0.046977
    26  H    0.054007
    27  H    0.054867
    28  H    0.054126
    29  H    0.054407
    30  H    0.052083
    31  H    0.054228
 Sum of Mulliken atomic charges =   0.00000

 Dipole moment (field-independent basis, Debye):
    X=              0.0500    Y=              0.3318    Z=             -1.2545  Tot=              1.2986
 Quadrupole moment (field-independent basis, Debye-Ang):
   XX=            -67.1081   YY=            -65.5389   ZZ=            -69.6921
   XY=             -1.4861   XZ=              1.1400   YZ=             -1.6707

 Summary of Natural Population Analysis:

                                       Natural Population
                Natural  -----------------------------------------------
    Atom  No    Charge         Core      Valence    Rydberg      Total
 -----------------------------------------------------------------------
      C    1   -0.13267      1.99997     4.13270    0.00000     6.13267
      C    2    0.01753      1.99997     3.98250    0.00000     5.98247
      C    3    0.14260      1.99988     3.85751    0.00000     5.85740
      C    4   -0.06687      1.99995     4.06692    0.00000     6.06687
      C    5   -0.00905      1.99995     4.00910    0.00000     6.00905
      C    6   -0.06428      1.99996     4.06432    0.00000     6.06428
      C    7   -0.09041      1.99996     4.09045    0.00000     6.09041
      O    8   -0.33697      1.99999     6.33698    0.00000     8.33697
      C    9    0.01985      1.99996     3.98020    0.00000     5.98015
      C   10   -0.12865      1.99997     4.12869    0.00000     6.12865
      C   11   -0.12947      1.99997     4.12951    0.00000     6.12947
      H   12    0.03185      0.00000     0.96815    0.00000     0.96815
      H   13    0.03451      0.00000     0.96549    0.00000     0.96549
      H   14    0.04674      0.00000     0.95326    0.00000     0.95326
      H   15    0.02221      0.00000     0.97779    0.00000     0.97779
      H   16    0.00659      0.00000     0.99341    0.00000     0.99341
      H   17    0.03712      0.00000     0.96288    0.00000     0.96288
      H   18    0.03023      0.00000     0.96977    0.00000     0.96977
      H   19    0.02876      0.00000     0.97124    0.00000     0.97124
      H   20    0.02995      0.00000     0.97005    0.00000     0.97005
      H   21    0.02484      0.00000     0.97516    0.00000     0.97516
      H   22    0.02601      0.00000     0.97399    0.00000     0.97399
      H   23    0.03112      0.00000     0.96888    0.00000     0.96888
      H   24    0.18834      0.00000     0.81166    0.00000     0.81166
      H   25    0.02121      0.00000     0.97879    0.00000     0.97879
      H   26    0.03650      0.00000     0.96350    0.00000     0.96350
      H   27    0.03716      0.00000     0.96284    0.00000     0.96284
      H   28    0.03686      0.00000     0.96314    0.00000     0.96314
      H   29    0.03685      0.00000     0.96315    0.00000     0.96315
      H   30    0.03461      0.00000     0.96539    0.00000     0.96539
      H   31    0.03695      0.00000     0.96305    0.00000     0.96305
 =======================================================================
   * Total *    0.00000     21.99952    66.00048    0.00000    88.00000

 Normal termination of Gaussian 09 at Sun May 24 02:05:08 2020.
