 Gaussian 09, Revision C.01,
 Gaussian 09:  EM64L-G09RevC.01 23-Sep-2011

 ------------------------
 # rhf/STO-3G nmr pop=nbo
 ------------------------

 99/9=1/99;
 -------
 comment
 -------
 Charge =  0 Multiplicity = 1

                         Standard orientation:
 ---------------------------------------------------------------------
 Center     Atomic      Atomic             Coordinates (Angstroms)
 Number     Number       Type             X           Y           Z
 ---------------------------------------------------------------------
      1          6           0       -3.114509   -0.343716   -0.006634
      2          6           0       -1.842575   -0.566113   -0.831204
      3          6           0       -0.233235    1.255899    0.051864
      4          6           0       -0.132060   -1.068011    0.998387
      5          6           0        0.711608    0.169073    0.617189
      6          6           0       -0.931963   -1.617838   -0.182197
      7          6           0       -1.088442    0.746646   -1.114285
      8          8           0       -1.099394    1.726662    1.086019
      9          6           0        1.901679   -0.165037   -0.339118
     10          6           0        2.813015   -1.261446    0.229557
     11          6           0        2.764457    1.070152   -0.634265
     12          1           0       -3.692815   -1.272118    0.057162
     13          1           0       -2.903776   -0.020477    1.015766
     14          1           0       -3.754737    0.410443   -0.476290
     15          1           0       -2.175094   -0.966026   -1.798720
     16          1           0        0.327077    2.134198   -0.279505
     17          1           0       -0.822781   -0.797331    1.806819
     18          1           0        0.496029   -1.860071    1.417872
     19          1           0        1.140826    0.549331    1.555162
     20          1           0       -1.526554   -2.477510    0.149906
     21          1           0       -0.239294   -2.004938   -0.939151
     22          1           0       -1.809584    1.520196   -1.406490
     23          1           0       -0.436217    0.586442   -1.981815
     24          1           0       -0.540133    2.077205    1.799994
     25          1           0        1.515429   -0.527926   -1.298614
     26          1           0        3.154718   -1.008963    1.238893
     27          1           0        2.302264   -2.227932    0.267652
     28          1           0        3.698182   -1.401290   -0.400907
     29          1           0        3.100760    1.549074    0.291381
     30          1           0        2.219998    1.809276   -1.228468
     31          1           0        3.653005    0.797474   -1.214561
 ---------------------------------------------------------------------

 SCF Done:  E(RHF) =  -459.616248726     A.U. after   10 cycles

      1  C    Isotropic =   221.4852   Anisotropy =    26.6933

      2  C    Isotropic =   216.2318   Anisotropy =     5.7132

      3  C    Isotropic =   189.4111   Anisotropy =    40.7896

      4  C    Isotropic =   220.9030   Anisotropy =    15.2002

      5  C    Isotropic =   208.1044   Anisotropy =    16.7253

      6  C    Isotropic =   219.0732   Anisotropy =    13.8822

      7  C    Isotropic =   217.8686   Anisotropy =    12.9851

      8  O    Isotropic =   353.4992   Anisotropy =    95.6674

      9  C    Isotropic =   215.1743   Anisotropy =    14.4068

     10  C    Isotropic =   221.4924   Anisotropy =    25.3769

     11  C    Isotropic =   221.5320   Anisotropy =    25.8549

     12  H    Isotropic =    32.5860   Anisotropy =    14.8010

     13  H    Isotropic =    31.9133   Anisotropy =     8.0632

     14  H    Isotropic =    32.4410   Anisotropy =    13.9595

     15  H    Isotropic =    32.4013   Anisotropy =    14.9316

     16  H    Isotropic =    31.8751   Anisotropy =    10.1955

     17  H    Isotropic =    32.2516   Anisotropy =    11.6762

     18  H    Isotropic =    32.5271   Anisotropy =    12.8410

     19  H    Isotropic =    33.1754   Anisotropy =    10.8964

     20  H    Isotropic =    32.5494   Anisotropy =    14.7664

     21  H    Isotropic =    32.5811   Anisotropy =    11.1367

     22  H    Isotropic =    32.1047   Anisotropy =    14.1385

     23  H    Isotropic =    32.5009   Anisotropy =    11.3922

     24  H    Isotropic =    35.1665   Anisotropy =    18.5603

     25  H    Isotropic =    32.6881   Anisotropy =     8.2048

     26  H    Isotropic =    32.7045   Anisotropy =    11.8469

     27  H    Isotropic =    32.3545   Anisotropy =    10.6599

     28  H    Isotropic =    32.5721   Anisotropy =    14.2000

     29  H    Isotropic =    32.7912   Anisotropy =    11.7528

     30  H    Isotropic =    32.5144   Anisotropy =    10.8086

     31  H    Isotropic =    32.5752   Anisotropy =    14.1882

 The electronic state is 1-A.
 Alpha  occ. eigenvalues --  -20.23599 -11.08419 -11.05032 -11.04472 -11.04082
 Alpha  occ. eigenvalues --  -11.03683 -11.03356 -11.03272 -11.03239 -11.03201
 Alpha  occ. eigenvalues --  -11.01856  -1.27733  -1.07867  -1.03286  -0.96462
 Alpha  occ. eigenvalues --   -0.94818  -0.89031  -0.87653  -0.79671  -0.78023
 Alpha  occ. eigenvalues --   -0.74228  -0.66592  -0.63659  -0.61241  -0.59423
 Alpha  occ. eigenvalues --   -0.57434  -0.55551  -0.54543  -0.52951  -0.51764
 Alpha  occ. eigenvalues --   -0.51167  -0.50053  -0.49285  -0.47391  -0.46362
 Alpha  occ. eigenvalues --   -0.46219  -0.44297  -0.43364  -0.41824  -0.40828
 Alpha  occ. eigenvalues --   -0.39142  -0.38436  -0.36312  -0.32897
 Alpha virt. eigenvalues --    0.52640   0.56515   0.57000   0.60484   0.61522
 Alpha virt. eigenvalues --    0.61646   0.62112   0.63217   0.65033   0.67110
 Alpha virt. eigenvalues --    0.68634   0.70002   0.70957   0.71200   0.72018

 Mulliken atomic charges:
              1
     1  C   -0.174226
     2  C   -0.021173
     3  C    0.074217
     4  C   -0.103495
     5  C   -0.039693
     6  C   -0.101391
     7  C   -0.105755
     8  O   -0.313958
     9  C   -0.022524
    10  C   -0.173165
    11  C   -0.174394
    12  H    0.048216
    13  H    0.065954
    14  H    0.052772
    15  H    0.046234
    16  H    0.043350
    17  H    0.054968
    18  H    0.051565
    19  H    0.039232
    20  H    0.050637
    21  H    0.045316
    22  H    0.060356
    23  H    0.050956
    24  H    0.174482
    25  H    0.048742
    26  H    0.052537
    27  H    0.055242
    28  H    0.054488
    29  H    0.051684
    30  H    0.053570
    31  H    0.055253
 Sum of Mulliken atomic charges =   0.00000

 Dipole moment (field-independent basis, Debye):
    X=              1.3902    Y=             -0.0847    Z=             -0.0106  Tot=              1.3929
 Quadrupole moment (field-independent basis, Debye-Ang):
   XX=            -70.4954   YY=            -67.6619   ZZ=            -65.6949
   XY=              2.3898   XZ=              1.5598   YZ=              0.8448

 Summary of Natural Population Analysis:

                                       Natural Population
                Natural  -----------------------------------------------
    Atom  No    Charge         Core      Valence    Rydberg      Total
 -----------------------------------------------------------------------
      C    1   -0.13019      1.99997     4.13022    0.00000     6.13019
      C    2    0.01798      1.99997     3.98205    0.00000     5.98202
      C    3    0.14216      1.99988     3.85796    0.00000     5.85784
      C    4   -0.06674      1.99995     4.06679    0.00000     6.06674
      C    5   -0.01673      1.99995     4.01678    0.00000     6.01673
      C    6   -0.06417      1.99996     4.06421    0.00000     6.06417
      C    7   -0.08109      1.99995     4.08113    0.00000     6.08109
      O    8   -0.33506      1.99999     6.33507    0.00000     8.33506
      C    9    0.01933      1.99996     3.98071    0.00000     5.98067
      C   10   -0.12893      1.99997     4.12896    0.00000     6.12893
      C   11   -0.13001      1.99997     4.13004    0.00000     6.13001
      H   12    0.03141      0.00000     0.96859    0.00000     0.96859
      H   13    0.04703      0.00000     0.95297    0.00000     0.95297
      H   14    0.03574      0.00000     0.96426    0.00000     0.96426
      H   15    0.02178      0.00000     0.97822    0.00000     0.97822
      H   16    0.00694      0.00000     0.99306    0.00000     0.99306
      H   17    0.03344      0.00000     0.96656    0.00000     0.96656
      H   18    0.03027      0.00000     0.96973    0.00000     0.96973
      H   19    0.01448      0.00000     0.98552    0.00000     0.98552
      H   20    0.03009      0.00000     0.96991    0.00000     0.96991
      H   21    0.02466      0.00000     0.97534    0.00000     0.97534
      H   22    0.03901      0.00000     0.96099    0.00000     0.96099
      H   23    0.03059      0.00000     0.96941    0.00000     0.96941
      H   24    0.18690      0.00000     0.81310    0.00000     0.81310
      H   25    0.02293      0.00000     0.97707    0.00000     0.97707
      H   26    0.03517      0.00000     0.96483    0.00000     0.96483
      H   27    0.03751      0.00000     0.96249    0.00000     0.96249
      H   28    0.03718      0.00000     0.96282    0.00000     0.96282
      H   29    0.03440      0.00000     0.96560    0.00000     0.96560
      H   30    0.03595      0.00000     0.96405    0.00000     0.96405
      H   31    0.03793      0.00000     0.96207    0.00000     0.96207
 =======================================================================
   * Total *    0.00000     21.99952    66.00048    0.00000    88.00000

 Normal termination of Gaussian 09 at Sun May 24 02:05:38 2020.
