 Gaussian 09, Revision C.01,
 Gaussian 09:  EM64L-G09RevC.01 23-Sep-2011

 ------------------------
 # rhf/STO-3G nmr pop=nbo
 ------------------------

 99/9=1/99;
 -------
 comment
 -------
 Charge =  0 Multiplicity = 1

                         Standard orientation:
 ---------------------------------------------------------------------
 Center     Atomic      Atomic             Coordinates (Angstroms)
 Number     Number       Type             X           Y           Z
 ---------------------------------------------------------------------
      1          6           0       -2.795289   -0.157398    1.061178
      2          6           0       -2.234782   -0.534146   -0.313440
      3          6           0       -0.258765    1.115659   -0.401034
      4          6           0        0.205160   -1.368668   -0.436867
      5          6           0        0.556506   -0.035573    0.233930
      6          6           0       -1.268845   -1.729970   -0.222315
      7          6           0       -1.591169    0.667117   -1.018071
      8          8           0       -0.498255    2.096854    0.610113
      9          6           0        2.079656    0.286514    0.250569
     10          6           0        2.753192    0.182372   -1.121560
     11          6           0        2.827848   -0.604176    1.249950
     12          1           0       -2.008351    0.109335    1.771931
     13          1           0       -3.481573    0.692214    0.980462
     14          1           0       -3.356613   -0.995834    1.487905
     15          1           0       -3.096545   -0.848924   -0.917482
     16          1           0        0.318230    1.620853   -1.182287
     17          1           0        0.823105   -2.185116   -0.048501
     18          1           0        0.403812   -1.311749   -1.514425
     19          1           0        0.256703   -0.109851    1.289254
     20          1           0       -1.379950   -2.234599    0.745635
     21          1           0       -1.547179   -2.475403   -0.978263
     22          1           0       -2.301233    1.502329   -1.051719
     23          1           0       -1.403529    0.376140   -2.060478
     24          1           0       -0.968463    2.839300    0.194061
     25          1           0        2.198460    1.320948    0.600130
     26          1           0        2.760770   -0.848033   -1.491603
     27          1           0        2.256255    0.808356   -1.867621
     28          1           0        3.795489    0.514766   -1.059513
     29          1           0        2.816081   -1.656035    0.948328
     30          1           0        2.384023   -0.529797    2.248213
     31          1           0        3.875481   -0.294118    1.331030
 ---------------------------------------------------------------------

 SCF Done:  E(RHF) =  -459.611330953     A.U. after   10 cycles

      1  C    Isotropic =   220.2493   Anisotropy =    26.4635

      2  C    Isotropic =   216.9529   Anisotropy =     4.3136

      3  C    Isotropic =   188.3097   Anisotropy =    35.8274

      4  C    Isotropic =   220.7082   Anisotropy =    11.6388

      5  C    Isotropic =   210.1114   Anisotropy =    15.9419

      6  C    Isotropic =   216.8495   Anisotropy =    16.7328

      7  C    Isotropic =   214.5488   Anisotropy =    12.2961

      8  O    Isotropic =   347.9820   Anisotropy =    98.3529

      9  C    Isotropic =   213.3024   Anisotropy =    16.4741

     10  C    Isotropic =   224.1071   Anisotropy =    20.4873

     11  C    Isotropic =   221.0536   Anisotropy =    27.3272

     12  H    Isotropic =    32.1909   Anisotropy =     7.2405

     13  H    Isotropic =    32.5618   Anisotropy =    13.7399

     14  H    Isotropic =    32.4595   Anisotropy =    14.4100

     15  H    Isotropic =    32.3652   Anisotropy =    15.2404

     16  H    Isotropic =    31.9521   Anisotropy =     8.9546

     17  H    Isotropic =    32.5300   Anisotropy =    12.6107

     18  H    Isotropic =    32.9378   Anisotropy =    10.4430

     19  H    Isotropic =    32.2656   Anisotropy =     7.9246

     20  H    Isotropic =    32.5156   Anisotropy =    12.2704

     21  H    Isotropic =    32.1621   Anisotropy =    15.0155

     22  H    Isotropic =    32.9351   Anisotropy =    13.2491

     23  H    Isotropic =    32.4229   Anisotropy =    12.2030

     24  H    Isotropic =    35.0987   Anisotropy =    19.2882

     25  H    Isotropic =    32.0756   Anisotropy =    11.1879

     26  H    Isotropic =    32.7912   Anisotropy =    10.1336

     27  H    Isotropic =    32.6500   Anisotropy =    10.7304

     28  H    Isotropic =    32.5438   Anisotropy =    14.8077

     29  H    Isotropic =    32.5233   Anisotropy =    10.1841

     30  H    Isotropic =    32.4123   Anisotropy =    12.4445

     31  H    Isotropic =    32.3888   Anisotropy =    14.6436

 The electronic state is 1-A.
 Alpha  occ. eigenvalues --  -20.23381 -11.08323 -11.04397 -11.04343 -11.04197
 Alpha  occ. eigenvalues --  -11.03779 -11.03597 -11.03333 -11.02885 -11.02701
 Alpha  occ. eigenvalues --  -11.02515  -1.27527  -1.07986  -1.03433  -0.96386
 Alpha  occ. eigenvalues --   -0.94480  -0.88743  -0.88200  -0.80366  -0.77881
 Alpha  occ. eigenvalues --   -0.72621  -0.68100  -0.62467  -0.60874  -0.59480
 Alpha  occ. eigenvalues --   -0.57722  -0.55531  -0.54305  -0.53468  -0.52700
 Alpha  occ. eigenvalues --   -0.50690  -0.50092  -0.48920  -0.48409  -0.46748
 Alpha  occ. eigenvalues --   -0.45003  -0.43243  -0.42941  -0.41934  -0.41072
 Alpha  occ. eigenvalues --   -0.38820  -0.38548  -0.36662  -0.32764
 Alpha virt. eigenvalues --    0.53223   0.55793   0.57983   0.59737   0.60520
 Alpha virt. eigenvalues --    0.61196   0.62845   0.64080   0.64638   0.67065
 Alpha virt. eigenvalues --    0.67725   0.68848   0.69562   0.71006   0.72077

 Mulliken atomic charges:
              1
     1  C   -0.173403
     2  C   -0.023929
     3  C    0.075081
     4  C   -0.102529
     5  C   -0.033394
     6  C   -0.101519
     7  C   -0.112975
     8  O   -0.314431
     9  C   -0.018995
    10  C   -0.175646
    11  C   -0.172861
    12  H    0.061541
    13  H    0.051300
    14  H    0.051268
    15  H    0.047314
    16  H    0.040042
    17  H    0.053225
    18  H    0.047446
    19  H    0.058283
    20  H    0.050535
    21  H    0.048390
    22  H    0.048585
    23  H    0.049344
    24  H    0.174032
    25  H    0.054784
    26  H    0.053497
    27  H    0.051337
    28  H    0.054390
    29  H    0.051678
    30  H    0.054172
    31  H    0.053439
 Sum of Mulliken atomic charges =   0.00000

 Dipole moment (field-independent basis, Debye):
    X=             -0.3551    Y=             -0.0175    Z=             -1.2678  Tot=              1.3167
 Quadrupole moment (field-independent basis, Debye-Ang):
   XX=            -67.2588   YY=            -65.8377   ZZ=            -68.6668
   XY=             -1.3709   XZ=              0.9067   YZ=             -2.7169

 Summary of Natural Population Analysis:

                                       Natural Population
                Natural  -----------------------------------------------
    Atom  No    Charge         Core      Valence    Rydberg      Total
 -----------------------------------------------------------------------
      C    1   -0.12878      1.99997     4.12881    0.00000     6.12878
      C    2    0.01450      1.99997     3.98554    0.00000     5.98550
      C    3    0.14378      1.99988     3.85634    0.00000     5.85622
      C    4   -0.06532      1.99996     4.06536    0.00000     6.06532
      C    5   -0.01261      1.99995     4.01266    0.00000     6.01261
      C    6   -0.06362      1.99996     4.06366    0.00000     6.06362
      C    7   -0.08913      1.99996     4.08917    0.00000     6.08913
      O    8   -0.33583      1.99999     6.33584    0.00000     8.33583
      C    9    0.02132      1.99996     3.97871    0.00000     5.97868
      C   10   -0.13156      1.99997     4.13159    0.00000     6.13156
      C   11   -0.12846      1.99997     4.12849    0.00000     6.12846
      H   12    0.04305      0.00000     0.95695    0.00000     0.95695
      H   13    0.03422      0.00000     0.96578    0.00000     0.96578
      H   14    0.03421      0.00000     0.96579    0.00000     0.96579
      H   15    0.02302      0.00000     0.97698    0.00000     0.97698
      H   16    0.00399      0.00000     0.99601    0.00000     0.99601
      H   17    0.03239      0.00000     0.96761    0.00000     0.96761
      H   18    0.02671      0.00000     0.97329    0.00000     0.97329
      H   19    0.03259      0.00000     0.96741    0.00000     0.96741
      H   20    0.02946      0.00000     0.97054    0.00000     0.97054
      H   21    0.02763      0.00000     0.97237    0.00000     0.97237
      H   22    0.02903      0.00000     0.97097    0.00000     0.97097
      H   23    0.02927      0.00000     0.97073    0.00000     0.97073
      H   24    0.18642      0.00000     0.81358    0.00000     0.81358
      H   25    0.02885      0.00000     0.97115    0.00000     0.97115
      H   26    0.03621      0.00000     0.96379    0.00000     0.96379
      H   27    0.03414      0.00000     0.96586    0.00000     0.96586
      H   28    0.03740      0.00000     0.96260    0.00000     0.96260
      H   29    0.03424      0.00000     0.96576    0.00000     0.96576
      H   30    0.03667      0.00000     0.96333    0.00000     0.96333
      H   31    0.03622      0.00000     0.96378    0.00000     0.96378
 =======================================================================
   * Total *    0.00000     21.99954    66.00046    0.00000    88.00000

 Normal termination of Gaussian 09 at Tue Aug  3 16:34:13 2021.
