 Gaussian 09, Revision C.01,
 Gaussian 09:  EM64L-G09RevC.01 23-Sep-2011

 ------------------------
 # rhf/STO-3G nmr pop=nbo
 ------------------------

 99/9=1/99;
 -------
 comment
 -------
 Charge =  0 Multiplicity = 1

                         Standard orientation:
 ---------------------------------------------------------------------
 Center     Atomic      Atomic             Coordinates (Angstroms)
 Number     Number       Type             X           Y           Z
 ---------------------------------------------------------------------
      1          6           0        3.070744    0.056568   -0.132824
      2          6           0        1.909460   -0.659932    0.561668
      3          6           0        0.010279    1.082111    0.350578
      4          6           0        0.243990   -0.800760   -1.366890
      5          6           0       -0.708097    0.222715   -0.710662
      6          6           0        1.144457   -1.567332   -0.404368
      7          6           0        0.956472    0.308188    1.276902
      8          8           0        0.762486    2.085005   -0.341424
      9          6           0       -2.064213   -0.404784   -0.261171
     10          6           0       -3.165988    0.666893   -0.223573
     11          6           0       -2.061156   -1.143479    1.075518
     12          1           0        3.600524    0.707763    0.570385
     13          1           0        3.793245   -0.673303   -0.514447
     14          1           0        2.745629    0.666043   -0.979692
     15          1           0        2.362175   -1.300197    1.330914
     16          1           0       -0.720890    1.625488    0.957644
     17          1           0        0.885037   -0.261503   -2.076800
     18          1           0       -0.325289   -1.513524   -1.975639
     19          1           0       -0.972453    0.899591   -1.538272
     20          1           0        1.850845   -2.176805   -0.981786
     21          1           0        0.545271   -2.280283    0.169754
     22          1           0        1.547689    1.014659    1.873351
     23          1           0        0.364983   -0.270400    1.994021
     24          1           0        1.174595    2.657537    0.327821
     25          1           0       -2.367422   -1.127246   -1.030806
     26          1           0       -2.973781    1.421472    0.545450
     27          1           0       -3.249295    1.177170   -1.188961
     28          1           0       -4.139505    0.212314   -0.009016
     29          1           0       -1.880283   -0.464806    1.914394
     30          1           0       -1.319972   -1.942720    1.102091
     31          1           0       -3.036673   -1.612410    1.249916
 ---------------------------------------------------------------------

 SCF Done:  E(RHF) =  -459.610415143     A.U. after   10 cycles

      1  C    Isotropic =   222.2348   Anisotropy =    25.6741

      2  C    Isotropic =   217.0551   Anisotropy =     5.4426

      3  C    Isotropic =   190.7398   Anisotropy =    42.5831

      4  C    Isotropic =   217.6728   Anisotropy =    18.8910

      5  C    Isotropic =   211.3686   Anisotropy =    15.7241

      6  C    Isotropic =   218.9954   Anisotropy =    11.0486

      7  C    Isotropic =   216.0518   Anisotropy =     9.7309

      8  O    Isotropic =   348.6835   Anisotropy =    98.1225

      9  C    Isotropic =   211.1117   Anisotropy =    20.7237

     10  C    Isotropic =   219.9680   Anisotropy =    29.0239

     11  C    Isotropic =   222.7852   Anisotropy =    19.1302

     12  H    Isotropic =    32.7256   Anisotropy =    13.6131

     13  H    Isotropic =    32.5814   Anisotropy =    14.9082

     14  H    Isotropic =    31.9726   Anisotropy =     7.8622

     15  H    Isotropic =    32.4731   Anisotropy =    14.7187

     16  H    Isotropic =    32.0463   Anisotropy =     9.6760

     17  H    Isotropic =    32.0092   Anisotropy =    12.3706

     18  H    Isotropic =    32.5440   Anisotropy =    13.6047

     19  H    Isotropic =    31.9483   Anisotropy =    11.6070

     20  H    Isotropic =    32.5210   Anisotropy =    14.9309

     21  H    Isotropic =    32.6452   Anisotropy =    11.8153

     22  H    Isotropic =    33.0096   Anisotropy =    13.2750

     23  H    Isotropic =    32.5468   Anisotropy =    11.0802

     24  H    Isotropic =    35.1589   Anisotropy =    18.6656

     25  H    Isotropic =    32.4817   Anisotropy =    12.0149

     26  H    Isotropic =    32.4933   Anisotropy =     9.6599

     27  H    Isotropic =    32.3909   Anisotropy =    13.0783

     28  H    Isotropic =    32.4573   Anisotropy =    14.5193

     29  H    Isotropic =    32.9547   Anisotropy =     8.5832

     30  H    Isotropic =    32.6679   Anisotropy =     9.4898

     31  H    Isotropic =    32.5489   Anisotropy =    14.9250

 The electronic state is 1-A.
 Alpha  occ. eigenvalues --  -20.23379 -11.08587 -11.04792 -11.04391 -11.04186
 Alpha  occ. eigenvalues --  -11.03724 -11.03221 -11.03209 -11.03093 -11.02901
 Alpha  occ. eigenvalues --  -11.02378  -1.27568  -1.07718  -1.03469  -0.96619
 Alpha  occ. eigenvalues --   -0.94598  -0.89368  -0.87916  -0.79533  -0.78972
 Alpha  occ. eigenvalues --   -0.73365  -0.66227  -0.63384  -0.60621  -0.59128
 Alpha  occ. eigenvalues --   -0.57373  -0.56668  -0.54421  -0.53511  -0.52012
 Alpha  occ. eigenvalues --   -0.51340  -0.49933  -0.49465  -0.49201  -0.46456
 Alpha  occ. eigenvalues --   -0.45852  -0.42920  -0.42498  -0.41942  -0.40539
 Alpha  occ. eigenvalues --   -0.38870  -0.38413  -0.36610  -0.32969
 Alpha virt. eigenvalues --    0.52544   0.55860   0.58506   0.59372   0.60729
 Alpha virt. eigenvalues --    0.60946   0.61963   0.64052   0.64603   0.66169
 Alpha virt. eigenvalues --    0.69439   0.70232   0.70363   0.71041   0.71982

 Mulliken atomic charges:
              1
     1  C   -0.176781
     2  C   -0.021491
     3  C    0.074390
     4  C   -0.100915
     5  C   -0.035684
     6  C   -0.102089
     7  C   -0.114860
     8  O   -0.314633
     9  C   -0.019977
    10  C   -0.172383
    11  C   -0.177490
    12  H    0.048996
    13  H    0.050966
    14  H    0.066462
    15  H    0.046945
    16  H    0.041814
    17  H    0.054408
    18  H    0.049506
    19  H    0.060430
    20  H    0.050370
    21  H    0.045984
    22  H    0.045360
    23  H    0.054381
    24  H    0.174558
    25  H    0.049878
    26  H    0.051634
    27  H    0.053932
    28  H    0.052750
    29  H    0.052810
    30  H    0.055701
    31  H    0.055029
 Sum of Mulliken atomic charges =   0.00000

 Dipole moment (field-independent basis, Debye):
    X=             -0.1894    Y=             -0.2592    Z=              1.2195  Tot=              1.2610
 Quadrupole moment (field-independent basis, Debye-Ang):
   XX=            -67.6269   YY=            -67.3227   ZZ=            -67.5067
   XY=              0.7438   XZ=              1.3509   YZ=              3.3665

 Summary of Natural Population Analysis:

                                       Natural Population
                Natural  -----------------------------------------------
    Atom  No    Charge         Core      Valence    Rydberg      Total
 -----------------------------------------------------------------------
      C    1   -0.13244      1.99997     4.13247    0.00000     6.13244
      C    2    0.01730      1.99997     3.98273    0.00000     5.98270
      C    3    0.14368      1.99988     3.85643    0.00000     5.85632
      C    4   -0.06418      1.99996     4.06423    0.00000     6.06418
      C    5   -0.01450      1.99994     4.01456    0.00000     6.01450
      C    6   -0.06561      1.99996     4.06565    0.00000     6.06561
      C    7   -0.09108      1.99996     4.09112    0.00000     6.09108
      O    8   -0.33620      1.99999     6.33621    0.00000     8.33620
      C    9    0.02148      1.99996     3.97856    0.00000     5.97852
      C   10   -0.12774      1.99997     4.12777    0.00000     6.12774
      C   11   -0.13405      1.99997     4.13409    0.00000     6.13405
      H   12    0.03241      0.00000     0.96759    0.00000     0.96759
      H   13    0.03413      0.00000     0.96587    0.00000     0.96587
      H   14    0.04761      0.00000     0.95239    0.00000     0.95239
      H   15    0.02281      0.00000     0.97719    0.00000     0.97719
      H   16    0.00590      0.00000     0.99410    0.00000     0.99410
      H   17    0.03283      0.00000     0.96717    0.00000     0.96717
      H   18    0.02881      0.00000     0.97119    0.00000     0.97119
      H   19    0.03463      0.00000     0.96537    0.00000     0.96537
      H   20    0.03025      0.00000     0.96975    0.00000     0.96975
      H   21    0.02525      0.00000     0.97475    0.00000     0.97475
      H   22    0.02594      0.00000     0.97406    0.00000     0.97406
      H   23    0.03366      0.00000     0.96634    0.00000     0.96634
      H   24    0.18691      0.00000     0.81309    0.00000     0.81309
      H   25    0.02442      0.00000     0.97558    0.00000     0.97558
      H   26    0.03401      0.00000     0.96599    0.00000     0.96599
      H   27    0.03622      0.00000     0.96378    0.00000     0.96378
      H   28    0.03535      0.00000     0.96465    0.00000     0.96465
      H   29    0.03593      0.00000     0.96407    0.00000     0.96407
      H   30    0.03791      0.00000     0.96209    0.00000     0.96209
      H   31    0.03835      0.00000     0.96165    0.00000     0.96165
 =======================================================================
   * Total *    0.00000     21.99953    66.00047    0.00000    88.00000

 Normal termination of Gaussian 09 at Sun May 24 02:05:58 2020.
