 Gaussian 09, Revision C.01,
 Gaussian 09:  EM64L-G09RevC.01 23-Sep-2011

 ------------------------
 # rhf/STO-3G nmr pop=nbo
 ------------------------

 99/9=1/99;
 -------
 comment
 -------
 Charge =  0 Multiplicity = 1

                         Standard orientation:
 ---------------------------------------------------------------------
 Center     Atomic      Atomic             Coordinates (Angstroms)
 Number     Number       Type             X           Y           Z
 ---------------------------------------------------------------------
      1          6           0        2.810185    0.637155   -0.832720
      2          6           0        2.300949   -0.320604    0.248374
      3          6           0       -0.004575    0.750789    0.663786
      4          6           0        0.125665   -1.632836   -0.181654
      5          6           0       -0.525828   -0.257892   -0.386182
      6          6           0        1.643804   -1.567412   -0.371248
      7          6           0        1.368446    0.381515    1.245244
      8          8           0        0.072487    2.039666    0.051058
      9          6           0       -2.078790   -0.358408   -0.461001
     10          6           0       -2.729357    0.989838   -0.785840
     11          6           0       -2.733623   -0.960573    0.786296
     12          1           0        3.574249    0.148121   -1.446939
     13          1           0        2.010948    0.968106   -1.501954
     14          1           0        3.266698    1.524715   -0.382136
     15          1           0        3.187935   -0.653025    0.804487
     16          1           0       -0.706095    0.848491    1.497990
     17          1           0       -0.288283   -2.365354   -0.884801
     18          1           0       -0.089273   -2.008894    0.826082
     19          1           0       -0.212845    0.097647   -1.379284
     20          1           0        1.877438   -1.629854   -1.441476
     21          1           0        2.081177   -2.467042    0.080244
     22          1           0        1.864983    1.270746    1.652459
     23          1           0        1.210762   -0.301156    2.091051
     24          1           0        0.348422    2.674294    0.734062
     25          1           0       -2.314534   -1.030428   -1.298026
     26          1           0       -2.634847    1.697456    0.043913
     27          1           0       -2.276661    1.438284   -1.676245
     28          1           0       -3.798314    0.860923   -0.988342
     29          1           0       -2.555005   -0.354239    1.678832
     30          1           0       -2.369239   -1.973362    0.981119
     31          1           0       -3.818667   -1.032191    0.650163
 ---------------------------------------------------------------------

 SCF Done:  E(RHF) =  -459.610990995     A.U. after   10 cycles

      1  C    Isotropic =   220.2405   Anisotropy =    26.2512

      2  C    Isotropic =   216.9708   Anisotropy =     4.3552

      3  C    Isotropic =   189.5932   Anisotropy =    38.6121

      4  C    Isotropic =   218.1526   Anisotropy =    13.9476

      5  C    Isotropic =   210.3934   Anisotropy =    11.1095

      6  C    Isotropic =   216.7594   Anisotropy =    16.5911

      7  C    Isotropic =   214.5179   Anisotropy =    12.3109

      8  O    Isotropic =   347.4335   Anisotropy =    98.2258

      9  C    Isotropic =   212.4738   Anisotropy =    16.9362

     10  C    Isotropic =   221.2487   Anisotropy =    24.4343

     11  C    Isotropic =   224.5358   Anisotropy =    20.7287

     12  H    Isotropic =    32.4404   Anisotropy =    14.5290

     13  H    Isotropic =    32.1623   Anisotropy =     7.2655

     14  H    Isotropic =    32.5747   Anisotropy =    13.5538

     15  H    Isotropic =    32.3570   Anisotropy =    15.2528

     16  H    Isotropic =    32.0226   Anisotropy =     8.6527

     17  H    Isotropic =    32.5303   Anisotropy =    13.2429

     18  H    Isotropic =    32.7659   Anisotropy =    10.3236

     19  H    Isotropic =    32.2001   Anisotropy =     8.4134

     20  H    Isotropic =    32.4771   Anisotropy =    12.4024

     21  H    Isotropic =    32.1379   Anisotropy =    15.1784

     22  H    Isotropic =    32.9563   Anisotropy =    13.0874

     23  H    Isotropic =    32.4559   Anisotropy =    12.1138

     24  H    Isotropic =    35.1306   Anisotropy =    19.0734

     25  H    Isotropic =    32.4029   Anisotropy =    12.5631

     26  H    Isotropic =    32.3218   Anisotropy =     8.9803

     27  H    Isotropic =    32.1829   Anisotropy =    11.9217

     28  H    Isotropic =    32.4679   Anisotropy =    14.9084

     29  H    Isotropic =    32.8018   Anisotropy =     9.6790

     30  H    Isotropic =    32.6290   Anisotropy =    11.3403

     31  H    Isotropic =    32.5789   Anisotropy =    14.7392

 The electronic state is 1-A.
 Alpha  occ. eigenvalues --  -20.23408 -11.08425 -11.04381 -11.04366 -11.04234
 Alpha  occ. eigenvalues --  -11.03804 -11.03577 -11.03297 -11.02838 -11.02489
 Alpha  occ. eigenvalues --  -11.02254  -1.27556  -1.07931  -1.03355  -0.96497
 Alpha  occ. eigenvalues --   -0.94376  -0.88627  -0.87966  -0.79536  -0.78851
 Alpha  occ. eigenvalues --   -0.72550  -0.67878  -0.62557  -0.60860  -0.59427
 Alpha  occ. eigenvalues --   -0.57603  -0.55499  -0.54300  -0.53536  -0.51946
 Alpha  occ. eigenvalues --   -0.50285  -0.49673  -0.49580  -0.48758  -0.46149
 Alpha  occ. eigenvalues --   -0.45174  -0.43746  -0.42585  -0.41887  -0.40768
 Alpha  occ. eigenvalues --   -0.38860  -0.38352  -0.36828  -0.32686
 Alpha virt. eigenvalues --    0.52998   0.56280   0.57312   0.59543   0.60744
 Alpha virt. eigenvalues --    0.61797   0.62314   0.64123   0.65027   0.66238
 Alpha virt. eigenvalues --    0.68962   0.69338   0.70065   0.70807   0.71763

 Mulliken atomic charges:
              1
     1  C   -0.173179
     2  C   -0.023997
     3  C    0.074105
     4  C   -0.100759
     5  C   -0.033599
     6  C   -0.101904
     7  C   -0.112112
     8  O   -0.313564
     9  C   -0.017507
    10  C   -0.172039
    11  C   -0.176408
    12  H    0.051153
    13  H    0.062126
    14  H    0.051039
    15  H    0.047226
    16  H    0.040817
    17  H    0.051816
    18  H    0.047189
    19  H    0.057936
    20  H    0.050504
    21  H    0.048335
    22  H    0.048285
    23  H    0.049464
    24  H    0.173925
    25  H    0.046679
    26  H    0.056103
    27  H    0.058599
    28  H    0.050442
    29  H    0.051176
    30  H    0.053581
    31  H    0.054566
 Sum of Mulliken atomic charges =   0.00000

 Dipole moment (field-independent basis, Debye):
    X=              0.3088    Y=             -0.4185    Z=              1.1910  Tot=              1.2996
 Quadrupole moment (field-independent basis, Debye-Ang):
   XX=            -67.9862   YY=            -67.5871   ZZ=            -66.3065
   XY=              0.9206   XZ=              0.7252   YZ=              3.3566

 Summary of Natural Population Analysis:

                                       Natural Population
                Natural  -----------------------------------------------
    Atom  No    Charge         Core      Valence    Rydberg      Total
 -----------------------------------------------------------------------
      C    1   -0.12858      1.99997     4.12861    0.00000     6.12858
      C    2    0.01442      1.99997     3.98561    0.00000     5.98558
      C    3    0.14283      1.99988     3.85729    0.00000     5.85717
      C    4   -0.06337      1.99996     4.06341    0.00000     6.06337
      C    5   -0.01278      1.99995     4.01284    0.00000     6.01278
      C    6   -0.06442      1.99996     4.06446    0.00000     6.06442
      C    7   -0.08789      1.99996     4.08793    0.00000     6.08789
      O    8   -0.33493      1.99999     6.33494    0.00000     8.33493
      C    9    0.02338      1.99996     3.97666    0.00000     5.97662
      C   10   -0.12862      1.99997     4.12865    0.00000     6.12862
      C   11   -0.13255      1.99997     4.13258    0.00000     6.13255
      H   12    0.03409      0.00000     0.96591    0.00000     0.96591
      H   13    0.04360      0.00000     0.95640    0.00000     0.95640
      H   14    0.03396      0.00000     0.96604    0.00000     0.96604
      H   15    0.02292      0.00000     0.97708    0.00000     0.97708
      H   16    0.00482      0.00000     0.99518    0.00000     0.99518
      H   17    0.03110      0.00000     0.96890    0.00000     0.96890
      H   18    0.02631      0.00000     0.97369    0.00000     0.97369
      H   19    0.03233      0.00000     0.96767    0.00000     0.96767
      H   20    0.02951      0.00000     0.97049    0.00000     0.97049
      H   21    0.02765      0.00000     0.97235    0.00000     0.97235
      H   22    0.02862      0.00000     0.97138    0.00000     0.97138
      H   23    0.02927      0.00000     0.97073    0.00000     0.97073
      H   24    0.18628      0.00000     0.81372    0.00000     0.81372
      H   25    0.02150      0.00000     0.97850    0.00000     0.97850
      H   26    0.03836      0.00000     0.96164    0.00000     0.96164
      H   27    0.04080      0.00000     0.95920    0.00000     0.95920
      H   28    0.03343      0.00000     0.96657    0.00000     0.96657
      H   29    0.03404      0.00000     0.96596    0.00000     0.96596
      H   30    0.03623      0.00000     0.96377    0.00000     0.96377
      H   31    0.03766      0.00000     0.96234    0.00000     0.96234
 =======================================================================
   * Total *    0.00000     21.99954    66.00046    0.00000    88.00000

 Normal termination of Gaussian 09 at Tue Aug  3 16:33:51 2021.
