 Gaussian 09, Revision C.01,
 Gaussian 09:  EM64L-G09RevC.01 23-Sep-2011

 ------------------------
 # rhf/STO-3G nmr pop=nbo
 ------------------------

 99/9=1/99;
 -------
 comment
 -------
 Charge =  0 Multiplicity = 1

                         Standard orientation:
 ---------------------------------------------------------------------
 Center     Atomic      Atomic             Coordinates (Angstroms)
 Number     Number       Type             X           Y           Z
 ---------------------------------------------------------------------
      1          6           0        2.984981   -0.449726   -0.476441
      2          6           0        1.832258   -0.888282    0.430504
      3          6           0        0.348980    1.221738    0.451325
      4          6           0       -0.126396   -0.677382   -1.201479
      5          6           0       -0.703508    0.542044   -0.454504
      6          6           0        0.736318   -1.611658   -0.354550
      7          6           0        1.243078    0.268641    1.248514
      8          8           0        1.178599    2.036093   -0.385688
      9          6           0       -2.070303    0.306074    0.260442
     10          6           0       -2.131740   -0.863539    1.239305
     11          6           0       -3.206985    0.152377   -0.762640
     12          1           0        3.753427    0.075820    0.100188
     13          1           0        2.659490    0.208446   -1.285886
     14          1           0        3.458644   -1.323575   -0.937306
     15          1           0        2.260394   -1.606458    1.142944
     16          1           0       -0.145479    1.913676    1.142597
     17          1           0        0.490167   -0.305304   -2.030317
     18          1           0       -0.925125   -1.257763   -1.675148
     19          1           0       -0.928781    1.275070   -1.245101
     20          1           0        1.184005   -2.373547   -1.004818
     21          1           0        0.105829   -2.161185    0.351056
     22          1           0        2.063836    0.831518    1.711138
     23          1           0        0.665664   -0.154835    2.076453
     24          1           0        1.802233    2.510254    0.190310
     25          1           0       -2.298848    1.216186    0.831718
     26          1           0       -2.040040   -1.826156    0.728177
     27          1           0       -1.362282   -0.794861    2.009001
     28          1           0       -3.097465   -0.870466    1.758275
     29          1           0       -3.107725   -0.766137   -1.349000
     30          1           0       -3.228817    1.000082   -1.455493
     31          1           0       -4.178013    0.118772   -0.256128
 ---------------------------------------------------------------------

 SCF Done:  E(RHF) =  -459.610760053     A.U. after   10 cycles

      1  C    Isotropic =   222.3116   Anisotropy =    25.5289

      2  C    Isotropic =   217.1059   Anisotropy =     5.2093

      3  C    Isotropic =   187.0755   Anisotropy =    39.5747

      4  C    Isotropic =   222.1621   Anisotropy =    13.4158

      5  C    Isotropic =   211.0929   Anisotropy =    18.9386

      6  C    Isotropic =   218.8569   Anisotropy =    11.6825

      7  C    Isotropic =   215.9535   Anisotropy =     8.9951

      8  O    Isotropic =   346.8971   Anisotropy =    99.0542

      9  C    Isotropic =   211.6873   Anisotropy =    19.7124

     10  C    Isotropic =   223.1657   Anisotropy =    18.6517

     11  C    Isotropic =   220.1953   Anisotropy =    29.0525

     12  H    Isotropic =    32.7180   Anisotropy =    13.7407

     13  H    Isotropic =    31.9729   Anisotropy =     7.8236

     14  H    Isotropic =    32.5851   Anisotropy =    14.8049

     15  H    Isotropic =    32.4770   Anisotropy =    14.7324

     16  H    Isotropic =    32.0327   Anisotropy =    10.1337

     17  H    Isotropic =    32.2254   Anisotropy =    12.6889

     18  H    Isotropic =    32.5540   Anisotropy =    12.8196

     19  H    Isotropic =    31.9499   Anisotropy =    11.5759

     20  H    Isotropic =    32.5665   Anisotropy =    14.6926

     21  H    Isotropic =    32.6906   Anisotropy =    11.4821

     22  H    Isotropic =    32.9579   Anisotropy =    13.5199

     23  H    Isotropic =    32.5336   Anisotropy =    11.5242

     24  H    Isotropic =    35.1009   Anisotropy =    18.8772

     25  H    Isotropic =    32.5642   Anisotropy =    11.7307

     26  H    Isotropic =    32.7540   Anisotropy =     8.8022

     27  H    Isotropic =    32.8001   Anisotropy =     9.5445

     28  H    Isotropic =    32.5713   Anisotropy =    14.9182

     29  H    Isotropic =    32.4358   Anisotropy =    10.0451

     30  H    Isotropic =    32.4264   Anisotropy =    13.1026

     31  H    Isotropic =    32.4186   Anisotropy =    14.5069

 The electronic state is 1-A.
 Alpha  occ. eigenvalues --  -20.23276 -11.08458 -11.04782 -11.04378 -11.04207
 Alpha  occ. eigenvalues --  -11.03797 -11.03221 -11.03168 -11.03134 -11.02935
 Alpha  occ. eigenvalues --  -11.02368  -1.27496  -1.07709  -1.03463  -0.96358
 Alpha  occ. eigenvalues --   -0.94852  -0.89330  -0.88015  -0.80381  -0.77885
 Alpha  occ. eigenvalues --   -0.73352  -0.66465  -0.63216  -0.60717  -0.59192
 Alpha  occ. eigenvalues --   -0.57688  -0.56036  -0.54448  -0.53377  -0.52850
 Alpha  occ. eigenvalues --   -0.50617  -0.50056  -0.49308  -0.49233  -0.46266
 Alpha  occ. eigenvalues --   -0.46030  -0.42985  -0.42538  -0.41937  -0.40213
 Alpha  occ. eigenvalues --   -0.39149  -0.38311  -0.36612  -0.32972
 Alpha virt. eigenvalues --    0.52146   0.56262   0.58530   0.59571   0.60373
 Alpha virt. eigenvalues --    0.61165   0.61932   0.63936   0.65137   0.66579
 Alpha virt. eigenvalues --    0.68285   0.70446   0.70706   0.71346   0.71872

 Mulliken atomic charges:
              1
     1  C   -0.176776
     2  C   -0.021490
     3  C    0.075357
     4  C   -0.103014
     5  C   -0.035454
     6  C   -0.102418
     7  C   -0.114255
     8  O   -0.315347
     9  C   -0.019802
    10  C   -0.177156
    11  C   -0.172258
    12  H    0.048994
    13  H    0.066542
    14  H    0.051006
    15  H    0.046969
    16  H    0.040554
    17  H    0.055580
    18  H    0.051292
    19  H    0.060506
    20  H    0.049793
    21  H    0.048642
    22  H    0.045904
    23  H    0.051642
    24  H    0.174018
    25  H    0.047387
    26  H    0.055588
    27  H    0.053508
    28  H    0.054543
    29  H    0.053045
    30  H    0.053782
    31  H    0.053316
 Sum of Mulliken atomic charges =   0.00000

 Dipole moment (field-independent basis, Debye):
    X=             -0.0469    Y=             -0.1610    Z=              1.2745  Tot=              1.2855
 Quadrupole moment (field-independent basis, Debye-Ang):
   XX=            -66.8127   YY=            -67.4727   ZZ=            -67.8304
   XY=              0.8051   XZ=              1.6567   YZ=              3.0988

 Summary of Natural Population Analysis:

                                       Natural Population
                Natural  -----------------------------------------------
    Atom  No    Charge         Core      Valence    Rydberg      Total
 -----------------------------------------------------------------------
      C    1   -0.13243      1.99997     4.13246    0.00000     6.13243
      C    2    0.01715      1.99997     3.98289    0.00000     5.98285
      C    3    0.14440      1.99989     3.85571    0.00000     5.85560
      C    4   -0.06617      1.99995     4.06621    0.00000     6.06617
      C    5   -0.01389      1.99994     4.01394    0.00000     6.01389
      C    6   -0.06593      1.99996     4.06597    0.00000     6.06593
      C    7   -0.09050      1.99996     4.09054    0.00000     6.09050
      O    8   -0.33706      1.99999     6.33707    0.00000     8.33706
      C    9    0.02166      1.99996     3.97838    0.00000     5.97834
      C   10   -0.13392      1.99997     4.13395    0.00000     6.13392
      C   11   -0.12756      1.99997     4.12760    0.00000     6.12756
      H   12    0.03241      0.00000     0.96759    0.00000     0.96759
      H   13    0.04769      0.00000     0.95231    0.00000     0.95231
      H   14    0.03419      0.00000     0.96581    0.00000     0.96581
      H   15    0.02288      0.00000     0.97712    0.00000     0.97712
      H   16    0.00472      0.00000     0.99528    0.00000     0.99528
      H   17    0.03416      0.00000     0.96584    0.00000     0.96584
      H   18    0.03042      0.00000     0.96958    0.00000     0.96958
      H   19    0.03463      0.00000     0.96537    0.00000     0.96537
      H   20    0.02963      0.00000     0.97037    0.00000     0.97037
      H   21    0.02751      0.00000     0.97249    0.00000     0.97249
      H   22    0.02655      0.00000     0.97345    0.00000     0.97345
      H   23    0.03133      0.00000     0.96867    0.00000     0.96867
      H   24    0.18638      0.00000     0.81362    0.00000     0.81362
      H   25    0.02203      0.00000     0.97797    0.00000     0.97797
      H   26    0.03846      0.00000     0.96154    0.00000     0.96154
      H   27    0.03598      0.00000     0.96402    0.00000     0.96402
      H   28    0.03791      0.00000     0.96209    0.00000     0.96209
      H   29    0.03530      0.00000     0.96470    0.00000     0.96470
      H   30    0.03611      0.00000     0.96389    0.00000     0.96389
      H   31    0.03595      0.00000     0.96405    0.00000     0.96405
 =======================================================================
   * Total *    0.00000     21.99953    66.00047    0.00000    88.00000

 Normal termination of Gaussian 09 at Tue Aug  3 16:32:56 2021.
