 Gaussian 09, Revision C.01,
 Gaussian 09:  EM64L-G09RevC.01 23-Sep-2011

 ------------------------
 # rhf/STO-3G nmr pop=nbo
 ------------------------

 99/9=1/99;
 -------
 comment
 -------
 Charge =  0 Multiplicity = 1

                         Standard orientation:
 ---------------------------------------------------------------------
 Center     Atomic      Atomic             Coordinates (Angstroms)
 Number     Number       Type             X           Y           Z
 ---------------------------------------------------------------------
      1          6           0        3.736723    0.157501   -0.027051
      2          6           0        2.274899   -0.092933    0.337995
      3          6           0       -0.062450    0.901387    0.336799
      4          6           0        0.260475   -1.564143   -0.083546
      5          6           0       -0.611317   -0.333082   -0.412463
      6          6           0        1.736584   -1.324801   -0.395146
      7          6           0        1.418418    1.134951    0.020213
      8          8           0       -0.757069    2.084526   -0.038542
      9          6           0       -2.115973   -0.664040   -0.171415
     10          6           0       -3.058887    0.234558   -0.979198
     11          6           0       -2.528024   -0.662551    1.302441
     12          1           0        4.354314   -0.710361    0.227128
     13          1           0        3.852599    0.353469   -1.098442
     14          1           0        4.130785    1.020727    0.519548
     15          1           0        2.224584   -0.281398    1.418665
     16          1           0       -0.165663    0.774387    1.421225
     17          1           0       -0.083191   -2.430367   -0.661694
     18          1           0        0.159614   -1.828722    0.975757
     19          1           0       -0.504072   -0.141318   -1.490246
     20          1           0        1.861503   -1.201918   -1.478638
     21          1           0        2.313906   -2.211978   -0.108485
     22          1           0        1.526816    1.413140   -1.037141
     23          1           0        1.776887    2.003124    0.588435
     24          1           0       -1.537906    2.159000    0.535019
     25          1           0       -2.285937   -1.682004   -0.549248
     26          1           0       -3.094267    1.257449   -0.597742
     27          1           0       -2.762300    0.269053   -2.032541
     28          1           0       -4.081127   -0.158638   -0.939523
     29          1           0       -2.483611    0.341020    1.736597
     30          1           0       -1.890627   -1.322638    1.897755
     31          1           0       -3.558453   -1.019315    1.410126
 ---------------------------------------------------------------------

 SCF Done:  E(RHF) =  -459.620181502     A.U. after   10 cycles

      1  C    Isotropic =   221.1479   Anisotropy =    28.3823

      2  C    Isotropic =   215.0561   Anisotropy =     7.9130

      3  C    Isotropic =   187.4892   Anisotropy =    42.5027

      4  C    Isotropic =   215.3206   Anisotropy =    19.3406

      5  C    Isotropic =   208.5820   Anisotropy =    14.2937

      6  C    Isotropic =   215.5817   Anisotropy =    16.7382

      7  C    Isotropic =   214.7552   Anisotropy =    22.2533

      8  O    Isotropic =   364.4426   Anisotropy =    75.9156

      9  C    Isotropic =   212.2230   Anisotropy =    19.2434

     10  C    Isotropic =   219.9738   Anisotropy =    27.8523

     11  C    Isotropic =   224.2318   Anisotropy =    19.7805

     12  H    Isotropic =    32.4397   Anisotropy =    13.9063

     13  H    Isotropic =    32.5947   Anisotropy =    11.6990

     14  H    Isotropic =    32.3986   Anisotropy =    13.7204

     15  H    Isotropic =    32.8895   Anisotropy =    10.7058

     16  H    Isotropic =    32.2171   Anisotropy =     6.2873

     17  H    Isotropic =    32.4852   Anisotropy =    13.1271

     18  H    Isotropic =    32.7659   Anisotropy =     9.6486

     19  H    Isotropic =    32.4321   Anisotropy =     9.0191

     20  H    Isotropic =    32.7166   Anisotropy =    11.1437

     21  H    Isotropic =    32.4403   Anisotropy =    14.1247

     22  H    Isotropic =    32.3599   Anisotropy =    10.3167

     23  H    Isotropic =    31.9656   Anisotropy =    13.0300

     24  H    Isotropic =    34.6991   Anisotropy =    16.6129

     25  H    Isotropic =    32.5018   Anisotropy =    11.6798

     26  H    Isotropic =    32.7143   Anisotropy =     9.2513

     27  H    Isotropic =    32.2930   Anisotropy =    12.4394

     28  H    Isotropic =    32.4516   Anisotropy =    14.7199

     29  H    Isotropic =    33.2239   Anisotropy =     9.6894

     30  H    Isotropic =    32.6190   Anisotropy =    10.9080

     31  H    Isotropic =    32.5712   Anisotropy =    14.6472

 The electronic state is 1-A.
 Alpha  occ. eigenvalues --  -20.23729 -11.08456 -11.04820 -11.04605 -11.03968
 Alpha  occ. eigenvalues --  -11.03668 -11.03589 -11.03539 -11.03372 -11.03046
 Alpha  occ. eigenvalues --  -11.02963  -1.27891  -1.08216  -1.03911  -0.97069
 Alpha  occ. eigenvalues --   -0.94640  -0.89297  -0.87730  -0.78757  -0.78076
 Alpha  occ. eigenvalues --   -0.73314  -0.71201  -0.62382  -0.60374  -0.59292
 Alpha  occ. eigenvalues --   -0.57580  -0.56570  -0.53911  -0.53503  -0.52962
 Alpha  occ. eigenvalues --   -0.50822  -0.50555  -0.49051  -0.47440  -0.47255
 Alpha  occ. eigenvalues --   -0.45382  -0.44144  -0.43198  -0.42211  -0.41492
 Alpha  occ. eigenvalues --   -0.40051  -0.38104  -0.37385  -0.32532
 Alpha virt. eigenvalues --    0.52778   0.55424   0.56513   0.59227   0.60963
 Alpha virt. eigenvalues --    0.61777   0.63376   0.65529   0.65815   0.67938
 Alpha virt. eigenvalues --    0.68238   0.69874   0.70812   0.71222   0.72517

 Mulliken atomic charges:
              1
     1  C   -0.171612
     2  C   -0.023849
     3  C    0.077052
     4  C   -0.101068
     5  C   -0.040051
     6  C   -0.099776
     7  C   -0.104646
     8  O   -0.313326
     9  C   -0.022791
    10  C   -0.172933
    11  C   -0.175419
    12  H    0.053543
    13  H    0.054116
    14  H    0.054222
    15  H    0.045402
    16  H    0.039722
    17  H    0.049675
    18  H    0.045317
    19  H    0.051058
    20  H    0.048284
    21  H    0.049796
    22  H    0.055635
    23  H    0.055374
    24  H    0.177817
    25  H    0.049348
    26  H    0.052632
    27  H    0.056950
    28  H    0.051937
    29  H    0.045435
    30  H    0.055355
    31  H    0.056798
 Sum of Mulliken atomic charges =   0.00000

 Dipole moment (field-independent basis, Debye):
    X=             -0.3336    Y=             -1.0233    Z=              0.9445  Tot=              1.4320
 Quadrupole moment (field-independent basis, Debye-Ang):
   XX=            -66.4954   YY=            -70.7334   ZZ=            -66.7506
   XY=             -0.3839   XZ=             -1.1346   YZ=              2.2559

 Summary of Natural Population Analysis:

                                       Natural Population
                Natural  -----------------------------------------------
    Atom  No    Charge         Core      Valence    Rydberg      Total
 -----------------------------------------------------------------------
      C    1   -0.12676      1.99997     4.12679    0.00000     6.12676
      C    2    0.01424      1.99997     3.98579    0.00000     5.98576
      C    3    0.14433      1.99989     3.85578    0.00000     5.85567
      C    4   -0.06259      1.99996     4.06263    0.00000     6.06259
      C    5   -0.02007      1.99995     4.02012    0.00000     6.02007
      C    6   -0.06280      1.99996     4.06283    0.00000     6.06280
      C    7   -0.08109      1.99996     4.08113    0.00000     6.08109
      O    8   -0.33444      1.99999     6.33444    0.00000     8.33444
      C    9    0.01782      1.99996     3.98222    0.00000     5.98218
      C   10   -0.12893      1.99997     4.12896    0.00000     6.12893
      C   11   -0.13103      1.99997     4.13106    0.00000     6.13103
      H   12    0.03632      0.00000     0.96368    0.00000     0.96368
      H   13    0.03678      0.00000     0.96322    0.00000     0.96322
      H   14    0.03692      0.00000     0.96308    0.00000     0.96308
      H   15    0.02158      0.00000     0.97842    0.00000     0.97842
      H   16    0.00508      0.00000     0.99492    0.00000     0.99492
      H   17    0.02870      0.00000     0.97130    0.00000     0.97130
      H   18    0.02427      0.00000     0.97573    0.00000     0.97573
      H   19    0.02554      0.00000     0.97446    0.00000     0.97446
      H   20    0.02759      0.00000     0.97241    0.00000     0.97241
      H   21    0.02925      0.00000     0.97075    0.00000     0.97075
      H   22    0.03461      0.00000     0.96539    0.00000     0.96539
      H   23    0.03443      0.00000     0.96557    0.00000     0.96557
      H   24    0.19044      0.00000     0.80956    0.00000     0.80956
      H   25    0.02424      0.00000     0.97576    0.00000     0.97576
      H   26    0.03491      0.00000     0.96509    0.00000     0.96509
      H   27    0.03942      0.00000     0.96058    0.00000     0.96058
      H   28    0.03480      0.00000     0.96520    0.00000     0.96520
      H   29    0.02893      0.00000     0.97107    0.00000     0.97107
      H   30    0.03790      0.00000     0.96210    0.00000     0.96210
      H   31    0.03964      0.00000     0.96036    0.00000     0.96036
 =======================================================================
   * Total *    0.00000     21.99956    66.00044    0.00000    88.00000

 Normal termination of Gaussian 09 at Tue Aug  3 16:33:05 2021.
