 Gaussian 09, Revision C.01,
 Gaussian 09:  EM64L-G09RevC.01 23-Sep-2011

 ------------------------
 # rhf/STO-3G nmr pop=nbo
 ------------------------

 99/9=1/99;
 -------
 comment
 -------
 Charge =  0 Multiplicity = 1

                         Standard orientation:
 ---------------------------------------------------------------------
 Center     Atomic      Atomic             Coordinates (Angstroms)
 Number     Number       Type             X           Y           Z
 ---------------------------------------------------------------------
      1          6           0        2.649550   -0.208610    1.261186
      2          6           0        2.335822    0.336124   -0.134740
      3          6           0        0.171133   -0.972951   -0.642996
      4          6           0        0.069214    1.535673   -0.442740
      5          6           0       -0.562871    0.215636    0.028576
      6          6           0        1.547218    1.651860   -0.057192
      7          6           0        1.631679   -0.694822   -1.023114
      8          8           0        0.119643   -2.123905    0.201105
      9          6           0       -2.102970    0.174520   -0.240074
     10          6           0       -2.847117    1.321287    0.458280
     11          6           0       -2.742691   -1.149257    0.199217
     12          1           0        3.312313    0.480385    1.796635
     13          1           0        1.750540   -0.332733    1.870577
     14          1           0        3.159769   -1.175353    1.198531
     15          1           0        3.307619    0.557001   -0.597046
     16          1           0       -0.350684   -1.256647   -1.564905
     17          1           0       -0.446308    2.403294   -0.019988
     18          1           0       -0.030415    1.617865   -1.532982
     19          1           0       -0.431517    0.145452    1.117169
     20          1           0        1.624642    2.080469    0.950063
     21          1           0        2.011347    2.388468   -0.725733
     22          1           0        2.207523   -1.628319   -1.041476
     23          1           0        1.645032   -0.302661   -2.049335
     24          1           0        0.545834   -1.904790    1.045283
     25          1           0       -2.271648    0.281182   -1.319884
     26          1           0       -2.622672    1.344317    1.529900
     27          1           0       -2.585804    2.292441    0.028822
     28          1           0       -3.931307    1.212124    0.343196
     29          1           0       -2.529621   -1.361692    1.252223
     30          1           0       -2.384634   -1.988509   -0.403965
     31          1           0       -3.830951   -1.117822    0.075653
 ---------------------------------------------------------------------

 SCF Done:  E(RHF) =  -459.608669491     A.U. after   10 cycles

      1  C    Isotropic =   220.3139   Anisotropy =    25.9376

      2  C    Isotropic =   217.7843   Anisotropy =     3.5664

      3  C    Isotropic =   187.7693   Anisotropy =    33.5284

      4  C    Isotropic =   219.3502   Anisotropy =    14.3638

      5  C    Isotropic =   207.6765   Anisotropy =    13.9406

      6  C    Isotropic =   217.4806   Anisotropy =    16.8541

      7  C    Isotropic =   215.7139   Anisotropy =    11.3822

      8  O    Isotropic =   343.2705   Anisotropy =    60.7825

      9  C    Isotropic =   211.2951   Anisotropy =    18.3998

     10  C    Isotropic =   221.2552   Anisotropy =    25.7509

     11  C    Isotropic =   221.1593   Anisotropy =    23.9158

     12  H    Isotropic =    32.4520   Anisotropy =    14.2487

     13  H    Isotropic =    33.2544   Anisotropy =     7.4856

     14  H    Isotropic =    32.7172   Anisotropy =    13.5690

     15  H    Isotropic =    32.3808   Anisotropy =    15.5152

     16  H    Isotropic =    31.4414   Anisotropy =     9.4705

     17  H    Isotropic =    32.4153   Anisotropy =    12.6302

     18  H    Isotropic =    32.8946   Anisotropy =    11.7626

     19  H    Isotropic =    33.4043   Anisotropy =     6.5155

     20  H    Isotropic =    32.6741   Anisotropy =    12.0155

     21  H    Isotropic =    32.1716   Anisotropy =    15.1706

     22  H    Isotropic =    32.2564   Anisotropy =    13.8483

     23  H    Isotropic =    32.3004   Anisotropy =    13.2848

     24  H    Isotropic =    35.1221   Anisotropy =    12.6589

     25  H    Isotropic =    32.6957   Anisotropy =    10.5570

     26  H    Isotropic =    32.7001   Anisotropy =    10.7607

     27  H    Isotropic =    32.3899   Anisotropy =    11.3238

     28  H    Isotropic =    32.5069   Anisotropy =    14.3265

     29  H    Isotropic =    32.5021   Anisotropy =    10.2844

     30  H    Isotropic =    31.8739   Anisotropy =    10.1820

     31  H    Isotropic =    32.5187   Anisotropy =    14.5902

 The electronic state is 1-A.
 Alpha  occ. eigenvalues --  -20.23309 -11.08412 -11.04886 -11.04584 -11.04521
 Alpha  occ. eigenvalues --  -11.03839 -11.03785 -11.03748 -11.03648 -11.02928
 Alpha  occ. eigenvalues --  -11.02301  -1.27554  -1.08232  -1.03729  -0.96946
 Alpha  occ. eigenvalues --   -0.94740  -0.88954  -0.88382  -0.79748  -0.78524
 Alpha  occ. eigenvalues --   -0.73500  -0.69483  -0.63307  -0.60795  -0.58104
 Alpha  occ. eigenvalues --   -0.57150  -0.55773  -0.54368  -0.53247  -0.52264
 Alpha  occ. eigenvalues --   -0.51825  -0.51011  -0.50248  -0.48319  -0.46285
 Alpha  occ. eigenvalues --   -0.45547  -0.44133  -0.43014  -0.42380  -0.41507
 Alpha  occ. eigenvalues --   -0.40182  -0.39200  -0.35596  -0.32382
 Alpha virt. eigenvalues --    0.53271   0.54307   0.57391   0.59317   0.61159
 Alpha virt. eigenvalues --    0.61315   0.62125   0.63112   0.64134   0.65462
 Alpha virt. eigenvalues --    0.67830   0.68430   0.69764   0.71854   0.72055

 Mulliken atomic charges:
              1
     1  C   -0.175369
     2  C   -0.027702
     3  C    0.073688
     4  C   -0.103198
     5  C   -0.038960
     6  C   -0.103047
     7  C   -0.115469
     8  O   -0.314647
     9  C   -0.017854
    10  C   -0.173966
    11  C   -0.173694
    12  H    0.056699
    13  H    0.045149
    14  H    0.055175
    15  H    0.050247
    16  H    0.058545
    17  H    0.055005
    18  H    0.047110
    19  H    0.041365
    20  H    0.049390
    21  H    0.050476
    22  H    0.060917
    23  H    0.050714
    24  H    0.176911
    25  H    0.044654
    26  H    0.051558
    27  H    0.053095
    28  H    0.054901
    29  H    0.052934
    30  H    0.064002
    31  H    0.051370
 Sum of Mulliken atomic charges =   0.00000

 Dipole moment (field-independent basis, Debye):
    X=              0.6733    Y=              1.3793    Z=              0.2394  Tot=              1.5534
 Quadrupole moment (field-independent basis, Debye-Ang):
   XX=            -67.1368   YY=            -72.7538   ZZ=            -65.5629
   XY=             -0.9286   XZ=              0.6510   YZ=             -0.7582

 Summary of Natural Population Analysis:

                                       Natural Population
                Natural  -----------------------------------------------
    Atom  No    Charge         Core      Valence    Rydberg      Total
 -----------------------------------------------------------------------
      C    1   -0.12954      1.99997     4.12957    0.00000     6.12954
      C    2    0.00995      1.99997     3.99008    0.00000     5.99005
      C    3    0.14062      1.99989     3.85949    0.00000     5.85938
      C    4   -0.06602      1.99996     4.06606    0.00000     6.06602
      C    5   -0.01666      1.99995     4.01671    0.00000     6.01666
      C    6   -0.06577      1.99996     4.06581    0.00000     6.06577
      C    7   -0.09275      1.99996     4.09279    0.00000     6.09275
      O    8   -0.33577      1.99999     6.33578    0.00000     8.33577
      C    9    0.02437      1.99996     3.97567    0.00000     5.97563
      C   10   -0.12991      1.99997     4.12994    0.00000     6.12991
      C   11   -0.13042      1.99997     4.13045    0.00000     6.13042
      H   12    0.03943      0.00000     0.96057    0.00000     0.96057
      H   13    0.02846      0.00000     0.97154    0.00000     0.97154
      H   14    0.03767      0.00000     0.96233    0.00000     0.96233
      H   15    0.02619      0.00000     0.97381    0.00000     0.97381
      H   16    0.02321      0.00000     0.97679    0.00000     0.97679
      H   17    0.03364      0.00000     0.96636    0.00000     0.96636
      H   18    0.02637      0.00000     0.97363    0.00000     0.97363
      H   19    0.01670      0.00000     0.98330    0.00000     0.98330
      H   20    0.02862      0.00000     0.97138    0.00000     0.97138
      H   21    0.02989      0.00000     0.97011    0.00000     0.97011
      H   22    0.04033      0.00000     0.95967    0.00000     0.95967
      H   23    0.03087      0.00000     0.96913    0.00000     0.96913
      H   24    0.18872      0.00000     0.81128    0.00000     0.81128
      H   25    0.01898      0.00000     0.98102    0.00000     0.98102
      H   26    0.03434      0.00000     0.96566    0.00000     0.96566
      H   27    0.03553      0.00000     0.96447    0.00000     0.96447
      H   28    0.03765      0.00000     0.96235    0.00000     0.96235
      H   29    0.03568      0.00000     0.96432    0.00000     0.96432
      H   30    0.04531      0.00000     0.95469    0.00000     0.95469
      H   31    0.03431      0.00000     0.96569    0.00000     0.96569
 =======================================================================
   * Total *    0.00000     21.99955    66.00045    0.00000    88.00000

 Normal termination of Gaussian 09 at Sun May 24 02:06:10 2020.
