 Gaussian 09, Revision C.01,
 Gaussian 09:  EM64L-G09RevC.01 23-Sep-2011

 ------------------------
 # rhf/STO-3G nmr pop=nbo
 ------------------------

 99/9=1/99;
 -------
 comment
 -------
 Charge =  0 Multiplicity = 1

                         Standard orientation:
 ---------------------------------------------------------------------
 Center     Atomic      Atomic             Coordinates (Angstroms)
 Number     Number       Type             X           Y           Z
 ---------------------------------------------------------------------
      1          6           0        3.727360    0.143753    0.010847
      2          6           0        2.261319   -0.124801    0.344901
      3          6           0       -0.072617    0.878939    0.390111
      4          6           0        0.247123   -1.558316   -0.187986
      5          6           0       -0.623126   -0.307712   -0.431921
      6          6           0        1.723769   -1.298190   -0.479738
      7          6           0        1.413428    1.127197    0.108640
      8          8           0       -0.778196    2.080109    0.099155
      9          6           0       -2.129432   -0.641078   -0.202862
     10          6           0       -3.068994    0.372957   -0.864494
     11          6           0       -2.515629   -0.812919    1.268641
     12          1           0        4.120308    0.964137    0.620581
     13          1           0        4.338991   -0.742942    0.208056
     14          1           0        3.853458    0.414524   -1.042953
     15          1           0        2.200815   -0.389932    1.408819
     16          1           0       -0.193454    0.683367    1.461354
     17          1           0       -0.097913   -2.382217   -0.824171
     18          1           0        0.148093   -1.895442    0.850413
     19          1           0       -0.522539   -0.048777   -1.496308
     20          1           0        1.850847   -1.095243   -1.550834
     21          1           0        2.299614   -2.204831   -0.258437
     22          1           0        1.536412    1.479513   -0.924662
     23          1           0        1.768222    1.950649    0.741804
     24          1           0       -0.689459    2.255502   -0.853224
     25          1           0       -2.324785   -1.600714   -0.701482
     26          1           0       -3.087413    1.328792   -0.333922
     27          1           0       -2.781096    0.557649   -1.904422
     28          1           0       -4.095469   -0.010946   -0.870715
     29          1           0       -2.430245    0.127207    1.822717
     30          1           0       -1.892463   -1.562118    1.764749
     31          1           0       -3.555563   -1.148027    1.352572
 ---------------------------------------------------------------------

 SCF Done:  E(RHF) =  -459.622751953     A.U. after   10 cycles

      1  C    Isotropic =   221.1709   Anisotropy =    28.3321

      2  C    Isotropic =   215.3422   Anisotropy =     8.0555

      3  C    Isotropic =   189.0000   Anisotropy =    40.7996

      4  C    Isotropic =   215.8816   Anisotropy =    18.2858

      5  C    Isotropic =   207.5139   Anisotropy =    12.0568

      6  C    Isotropic =   215.6646   Anisotropy =    16.6112

      7  C    Isotropic =   213.3187   Anisotropy =    24.3600

      8  O    Isotropic =   350.2658   Anisotropy =    86.6566

      9  C    Isotropic =   212.0971   Anisotropy =    18.7486

     10  C    Isotropic =   220.4644   Anisotropy =    27.2083

     11  C    Isotropic =   224.1525   Anisotropy =    20.5581

     12  H    Isotropic =    32.4371   Anisotropy =    13.7812

     13  H    Isotropic =    32.4552   Anisotropy =    13.8944

     14  H    Isotropic =    32.7196   Anisotropy =    11.5162

     15  H    Isotropic =    32.8126   Anisotropy =    11.0019

     16  H    Isotropic =    31.6358   Anisotropy =     7.3705

     17  H    Isotropic =    32.5025   Anisotropy =    13.2094

     18  H    Isotropic =    32.6561   Anisotropy =    10.0429

     19  H    Isotropic =    33.2592   Anisotropy =     8.2988

     20  H    Isotropic =    32.8897   Anisotropy =    10.9059

     21  H    Isotropic =    32.4418   Anisotropy =    14.1145

     22  H    Isotropic =    33.1924   Anisotropy =     9.4984

     23  H    Isotropic =    31.9812   Anisotropy =    13.0755

     24  H    Isotropic =    35.4705   Anisotropy =    14.4765

     25  H    Isotropic =    32.5302   Anisotropy =    11.8016

     26  H    Isotropic =    31.9940   Anisotropy =     9.1783

     27  H    Isotropic =    32.7283   Anisotropy =    11.8276

     28  H    Isotropic =    32.4012   Anisotropy =    14.9021

     29  H    Isotropic =    32.4078   Anisotropy =     9.6133

     30  H    Isotropic =    32.5767   Anisotropy =    11.0863

     31  H    Isotropic =    32.4822   Anisotropy =    14.8851

 The electronic state is 1-A.
 Alpha  occ. eigenvalues --  -20.23829 -11.08578 -11.04854 -11.04540 -11.04327
 Alpha  occ. eigenvalues --  -11.03812 -11.03780 -11.03695 -11.03285 -11.02758
 Alpha  occ. eigenvalues --  -11.02450  -1.27982  -1.08369  -1.03729  -0.97091
 Alpha  occ. eigenvalues --   -0.94753  -0.88617  -0.87947  -0.79325  -0.78265
 Alpha  occ. eigenvalues --   -0.73382  -0.71867  -0.60842  -0.60177  -0.59529
 Alpha  occ. eigenvalues --   -0.57243  -0.56549  -0.54023  -0.53193  -0.52507
 Alpha  occ. eigenvalues --   -0.51730  -0.50082  -0.49297  -0.47558  -0.47183
 Alpha  occ. eigenvalues --   -0.45360  -0.44622  -0.43160  -0.42645  -0.41693
 Alpha  occ. eigenvalues --   -0.40712  -0.39091  -0.35940  -0.32334
 Alpha virt. eigenvalues --    0.53816   0.54539   0.56860   0.60464   0.60984
 Alpha virt. eigenvalues --    0.61539   0.62756   0.65064   0.66731   0.68020
 Alpha virt. eigenvalues --    0.68350   0.69628   0.70769   0.71808   0.72156

 Mulliken atomic charges:
              1
     1  C   -0.171847
     2  C   -0.023936
     3  C    0.074998
     4  C   -0.101257
     5  C   -0.040392
     6  C   -0.100118
     7  C   -0.111616
     8  O   -0.312391
     9  C   -0.017789
    10  C   -0.176273
    11  C   -0.175783
    12  H    0.054522
    13  H    0.054189
    14  H    0.052812
    15  H    0.047487
    16  H    0.059563
    17  H    0.050443
    18  H    0.048380
    19  H    0.038602
    20  H    0.046464
    21  H    0.050846
    22  H    0.042240
    23  H    0.057071
    24  H    0.176821
    25  H    0.046461
    26  H    0.066751
    27  H    0.046982
    28  H    0.051538
    29  H    0.059069
    30  H    0.051716
    31  H    0.054447
 Sum of Mulliken atomic charges =   0.00000

 Dipole moment (field-independent basis, Debye):
    X=              0.7366    Y=             -0.8786    Z=             -0.8756  Tot=              1.4426
 Quadrupole moment (field-independent basis, Debye-Ang):
   XX=            -69.2056   YY=            -70.2060   ZZ=            -66.0632
   XY=              1.7734   XZ=              0.9582   YZ=             -2.5587

 Summary of Natural Population Analysis:

                                       Natural Population
                Natural  -----------------------------------------------
    Atom  No    Charge         Core      Valence    Rydberg      Total
 -----------------------------------------------------------------------
      C    1   -0.12703      1.99997     4.12705    0.00000     6.12703
      C    2    0.01411      1.99997     3.98592    0.00000     5.98589
      C    3    0.14075      1.99989     3.85935    0.00000     5.85925
      C    4   -0.06317      1.99996     4.06321    0.00000     6.06317
      C    5   -0.01900      1.99996     4.01905    0.00000     6.01900
      C    6   -0.06297      1.99997     4.06300    0.00000     6.06297
      C    7   -0.08791      1.99996     4.08795    0.00000     6.08791
      O    8   -0.33292      1.99999     6.33293    0.00000     8.33292
      C    9    0.02328      1.99996     3.97676    0.00000     5.97672
      C   10   -0.13258      1.99997     4.13261    0.00000     6.13258
      C   11   -0.13212      1.99997     4.13215    0.00000     6.13212
      H   12    0.03719      0.00000     0.96281    0.00000     0.96281
      H   13    0.03691      0.00000     0.96309    0.00000     0.96309
      H   14    0.03559      0.00000     0.96441    0.00000     0.96441
      H   15    0.02355      0.00000     0.97645    0.00000     0.97645
      H   16    0.02431      0.00000     0.97569    0.00000     0.97569
      H   17    0.02945      0.00000     0.97055    0.00000     0.97055
      H   18    0.02716      0.00000     0.97284    0.00000     0.97284
      H   19    0.01412      0.00000     0.98588    0.00000     0.98588
      H   20    0.02590      0.00000     0.97410    0.00000     0.97410
      H   21    0.03022      0.00000     0.96978    0.00000     0.96978
      H   22    0.02254      0.00000     0.97746    0.00000     0.97746
      H   23    0.03607      0.00000     0.96393    0.00000     0.96393
      H   24    0.18923      0.00000     0.81077    0.00000     0.81077
      H   25    0.02118      0.00000     0.97882    0.00000     0.97882
      H   26    0.04779      0.00000     0.95221    0.00000     0.95221
      H   27    0.03038      0.00000     0.96962    0.00000     0.96962
      H   28    0.03464      0.00000     0.96536    0.00000     0.96536
      H   29    0.04126      0.00000     0.95874    0.00000     0.95874
      H   30    0.03452      0.00000     0.96548    0.00000     0.96548
      H   31    0.03755      0.00000     0.96245    0.00000     0.96245
 =======================================================================
   * Total *    0.00000     21.99957    66.00043    0.00000    88.00000

 Normal termination of Gaussian 09 at Tue Aug  3 16:32:28 2021.
