 Gaussian 09, Revision C.01,
 Gaussian 09:  EM64L-G09RevC.01 23-Sep-2011

 ------------------------
 # rhf/STO-3G nmr pop=nbo
 ------------------------

 99/9=1/99;
 -------
 comment
 -------
 Charge =  0 Multiplicity = 1

                         Standard orientation:
 ---------------------------------------------------------------------
 Center     Atomic      Atomic             Coordinates (Angstroms)
 Number     Number       Type             X           Y           Z
 ---------------------------------------------------------------------
      1          6           0       -3.391400    0.239737    0.145696
      2          6           0       -1.975735    0.554847    0.631575
      3          6           0       -0.223748   -1.170449   -0.131408
      4          6           0        0.264050    1.351365   -0.219458
      5          6           0        0.773839   -0.064737   -0.564692
      6          6           0       -1.248119    1.451989   -0.379813
      7          6           0       -1.181360   -0.721207    0.974555
      8          8           0       -1.014113   -1.562871   -1.257860
      9          6           0        2.218906   -0.337950   -0.053039
     10          6           0        2.352781   -0.401411    1.471096
     11          6           0        3.220901    0.676587   -0.615159
     12          1           0       -3.948582    1.163210   -0.045068
     13          1           0       -3.380252   -0.344713   -0.779649
     14          1           0       -3.942762   -0.331490    0.900022
     15          1           0       -2.084788    1.120782    1.567084
     16          1           0        0.305525   -2.072843    0.193769
     17          1           0        0.743558    2.083509   -0.880020
     18          1           0        0.530089    1.632878    0.805033
     19          1           0        0.835235   -0.100784   -1.662904
     20          1           0       -1.520512    1.182606   -1.408181
     21          1           0       -1.568020    2.491418   -0.238203
     22          1           0       -1.874070   -1.535739    1.219660
     23          1           0       -0.598702   -0.529542    1.884094
     24          1           0       -0.409469   -1.929661   -1.925317
     25          1           0        2.515479   -1.321934   -0.442077
     26          1           0        2.095503    0.549386    1.946611
     27          1           0        1.717603   -1.182340    1.898303
     28          1           0        3.384812   -0.639182    1.752840
     29          1           0        3.057629    1.678518   -0.205309
     30          1           0        3.147507    0.735113   -1.706101
     31          1           0        4.246433    0.381150   -0.367825
 ---------------------------------------------------------------------

 SCF Done:  E(RHF) =  -459.612445005     A.U. after   10 cycles

      1  C    Isotropic =   220.1338   Anisotropy =    28.2029

      2  C    Isotropic =   216.0310   Anisotropy =     8.8539

      3  C    Isotropic =   186.5635   Anisotropy =    36.0427

      4  C    Isotropic =   220.0680   Anisotropy =    11.2526

      5  C    Isotropic =   206.4749   Anisotropy =    18.0802

      6  C    Isotropic =   217.2153   Anisotropy =    16.6758

      7  C    Isotropic =   216.7797   Anisotropy =    14.4571

      8  O    Isotropic =   345.4877   Anisotropy =    82.3857

      9  C    Isotropic =   212.4493   Anisotropy =    16.9553

     10  C    Isotropic =   224.6063   Anisotropy =    20.1234

     11  C    Isotropic =   221.4511   Anisotropy =    25.8902

     12  H    Isotropic =    32.4167   Anisotropy =    14.2544

     13  H    Isotropic =    32.0620   Anisotropy =     9.7701

     14  H    Isotropic =    32.4458   Anisotropy =    14.0695

     15  H    Isotropic =    32.4183   Anisotropy =    13.4269

     16  H    Isotropic =    31.9806   Anisotropy =     9.0202

     17  H    Isotropic =    32.4744   Anisotropy =    13.3276

     18  H    Isotropic =    32.8658   Anisotropy =     9.5891

     19  H    Isotropic =    32.7797   Anisotropy =    10.0537

     20  H    Isotropic =    32.4618   Anisotropy =    10.2641

     21  H    Isotropic =    32.3025   Anisotropy =    14.7892

     22  H    Isotropic =    32.1009   Anisotropy =    13.3119

     23  H    Isotropic =    32.4962   Anisotropy =    11.1287

     24  H    Isotropic =    34.9321   Anisotropy =    18.1241

     25  H    Isotropic =    32.6673   Anisotropy =    12.1509

     26  H    Isotropic =    32.7667   Anisotropy =     9.4861

     27  H    Isotropic =    32.8021   Anisotropy =    10.1753

     28  H    Isotropic =    32.6379   Anisotropy =    14.7409

     29  H    Isotropic =    32.5717   Anisotropy =     9.8002

     30  H    Isotropic =    32.5727   Anisotropy =    12.6737

     31  H    Isotropic =    32.5124   Anisotropy =    14.5823

 The electronic state is 1-A.
 Alpha  occ. eigenvalues --  -20.23450 -11.08381 -11.05028 -11.04237 -11.03914
 Alpha  occ. eigenvalues --  -11.03508 -11.03407 -11.03357 -11.03269 -11.03006
 Alpha  occ. eigenvalues --  -11.02012  -1.27595  -1.07796  -1.03546  -0.96485
 Alpha  occ. eigenvalues --   -0.94576  -0.89240  -0.87549  -0.80003  -0.78025
 Alpha  occ. eigenvalues --   -0.72609  -0.68076  -0.63504  -0.61015  -0.60151
 Alpha  occ. eigenvalues --   -0.56418  -0.55947  -0.53902  -0.53072  -0.51693
 Alpha  occ. eigenvalues --   -0.50912  -0.50068  -0.49007  -0.48016  -0.46682
 Alpha  occ. eigenvalues --   -0.45546  -0.44520  -0.42762  -0.41945  -0.40328
 Alpha  occ. eigenvalues --   -0.39557  -0.39154  -0.35815  -0.32867
 Alpha virt. eigenvalues --    0.52921   0.56255   0.57396   0.59986   0.60245
 Alpha virt. eigenvalues --    0.61527   0.62299   0.64454   0.65613   0.66641
 Alpha virt. eigenvalues --    0.67388   0.68614   0.70257   0.71558   0.72152

 Mulliken atomic charges:
              1
     1  C   -0.171737
     2  C   -0.020077
     3  C    0.074396
     4  C   -0.101895
     5  C   -0.040930
     6  C   -0.099857
     7  C   -0.106390
     8  O   -0.314328
     9  C   -0.019391
    10  C   -0.176841
    11  C   -0.173623
    12  H    0.049966
    13  H    0.064480
    14  H    0.049955
    15  H    0.044099
    16  H    0.041394
    17  H    0.050710
    18  H    0.047008
    19  H    0.044404
    20  H    0.054775
    21  H    0.048959
    22  H    0.059809
    23  H    0.052061
    24  H    0.173501
    25  H    0.043561
    26  H    0.054557
    27  H    0.054122
    28  H    0.055461
    29  H    0.055388
    30  H    0.052382
    31  H    0.054079
 Sum of Mulliken atomic charges =   0.00000

 Dipole moment (field-independent basis, Debye):
    X=              1.4091    Y=             -0.0302    Z=              0.0993  Tot=              1.4129
 Quadrupole moment (field-independent basis, Debye-Ang):
   XX=            -70.3555   YY=            -66.9491   ZZ=            -66.2568
   XY=             -2.4321   XZ=             -2.0165   YZ=              0.7386

 Summary of Natural Population Analysis:

                                       Natural Population
                Natural  -----------------------------------------------
    Atom  No    Charge         Core      Valence    Rydberg      Total
 -----------------------------------------------------------------------
      C    1   -0.12730      1.99997     4.12732    0.00000     6.12730
      C    2    0.01860      1.99997     3.98144    0.00000     5.98140
      C    3    0.14325      1.99989     3.85686    0.00000     5.85675
      C    4   -0.06445      1.99996     4.06449    0.00000     6.06445
      C    5   -0.01972      1.99995     4.01977    0.00000     6.01972
      C    6   -0.06322      1.99996     4.06325    0.00000     6.06322
      C    7   -0.08239      1.99995     4.08244    0.00000     6.08239
      O    8   -0.33575      1.99999     6.33576    0.00000     8.33575
      C    9    0.02169      1.99996     3.97835    0.00000     5.97831
      C   10   -0.13311      1.99997     4.13315    0.00000     6.13311
      C   11   -0.12966      1.99997     4.12969    0.00000     6.12966
      H   12    0.03298      0.00000     0.96702    0.00000     0.96702
      H   13    0.04585      0.00000     0.95415    0.00000     0.95415
      H   14    0.03294      0.00000     0.96706    0.00000     0.96706
      H   15    0.01977      0.00000     0.98023    0.00000     0.98023
      H   16    0.00571      0.00000     0.99429    0.00000     0.99429
      H   17    0.03002      0.00000     0.96998    0.00000     0.96998
      H   18    0.02595      0.00000     0.97405    0.00000     0.97405
      H   19    0.01989      0.00000     0.98011    0.00000     0.98011
      H   20    0.03339      0.00000     0.96661    0.00000     0.96661
      H   21    0.02860      0.00000     0.97140    0.00000     0.97140
      H   22    0.03866      0.00000     0.96134    0.00000     0.96134
      H   23    0.03170      0.00000     0.96830    0.00000     0.96830
      H   24    0.18588      0.00000     0.81412    0.00000     0.81412
      H   25    0.01856      0.00000     0.98144    0.00000     0.98144
      H   26    0.03721      0.00000     0.96279    0.00000     0.96279
      H   27    0.03674      0.00000     0.96326    0.00000     0.96326
      H   28    0.03851      0.00000     0.96149    0.00000     0.96149
      H   29    0.03776      0.00000     0.96224    0.00000     0.96224
      H   30    0.03512      0.00000     0.96488    0.00000     0.96488
      H   31    0.03683      0.00000     0.96317    0.00000     0.96317
 =======================================================================
   * Total *    0.00000     21.99955    66.00045    0.00000    88.00000

 Normal termination of Gaussian 09 at Tue Aug  3 16:33:01 2021.
