 Gaussian 09, Revision C.01,
 Gaussian 09:  EM64L-G09RevC.01 23-Sep-2011

 ------------------------
 # rhf/STO-3G nmr pop=nbo
 ------------------------

 99/9=1/99;
 -------
 comment
 -------
 Charge =  0 Multiplicity = 1

                         Standard orientation:
 ---------------------------------------------------------------------
 Center     Atomic      Atomic             Coordinates (Angstroms)
 Number     Number       Type             X           Y           Z
 ---------------------------------------------------------------------
      1          6           0       -3.247551   -0.802986   -0.760171
      2          6           0       -1.769466   -0.484671   -0.544091
      3          6           0       -0.074655    1.343648   -0.089501
      4          6           0       -0.088120   -0.712465    1.376179
      5          6           0        0.807686    0.246933    0.570348
      6          6           0       -1.160405   -1.401466    0.529345
      7          6           0       -1.565761    0.986411   -0.184487
      8          8           0        0.046790    2.543961    0.677345
      9          6           0        1.721930   -0.473611   -0.471652
     10          6           0        2.444842   -1.695660    0.109657
     11          6           0        2.788219    0.483339   -1.030066
     12          1           0       -3.381423   -1.854558   -1.034999
     13          1           0       -3.833002   -0.610258    0.145261
     14          1           0       -3.662541   -0.189828   -1.567055
     15          1           0       -1.254568   -0.676604   -1.494618
     16          1           0        0.284480    1.579638   -1.095312
     17          1           0       -0.588107   -0.133129    2.164951
     18          1           0        0.502535   -1.462500    1.912777
     19          1           0        1.477301    0.728109    1.297830
     20          1           0       -1.936156   -1.781410    1.205954
     21          1           0       -0.735197   -2.284271    0.036306
     22          1           0       -2.075218    1.223207    0.759541
     23          1           0       -2.036232    1.634466   -0.935243
     24          1           0       -0.493864    3.225290    0.242313
     25          1           0        1.110938   -0.819867   -1.313789
     26          1           0        3.000550   -1.433227    1.016189
     27          1           0        1.743872   -2.499126    0.353594
     28          1           0        3.156321   -2.109285   -0.613743
     29          1           0        3.427639    0.870463   -0.229179
     30          1           0        2.347083    1.336961   -1.550823
     31          1           0        3.430950   -0.032594   -1.752089
 ---------------------------------------------------------------------

 SCF Done:  E(RHF) =  -459.610791629     A.U. after   10 cycles

      1  C    Isotropic =   220.9302   Anisotropy =    27.8547

      2  C    Isotropic =   217.5437   Anisotropy =     8.5976

      3  C    Isotropic =   187.1259   Anisotropy =    37.7649

      4  C    Isotropic =   219.0793   Anisotropy =    13.5604

      5  C    Isotropic =   208.6139   Anisotropy =    14.4849

      6  C    Isotropic =   217.9414   Anisotropy =    19.4742

      7  C    Isotropic =   214.6271   Anisotropy =    22.5055

      8  O    Isotropic =   351.1331   Anisotropy =    85.1681

      9  C    Isotropic =   212.8024   Anisotropy =    16.2773

     10  C    Isotropic =   221.5762   Anisotropy =    24.3417

     11  C    Isotropic =   221.1255   Anisotropy =    26.7109

     12  H    Isotropic =    32.3690   Anisotropy =    13.5073

     13  H    Isotropic =    32.6593   Anisotropy =    11.9234

     14  H    Isotropic =    32.5655   Anisotropy =    13.8611

     15  H    Isotropic =    32.8217   Anisotropy =     9.8499

     16  H    Isotropic =    31.9372   Anisotropy =     8.1149

     17  H    Isotropic =    32.2785   Anisotropy =    12.6934

     18  H    Isotropic =    32.3517   Anisotropy =    12.8413

     19  H    Isotropic =    32.1417   Anisotropy =    11.0399

     20  H    Isotropic =    32.6130   Anisotropy =    13.4496

     21  H    Isotropic =    32.3805   Anisotropy =    11.6495

     22  H    Isotropic =    32.4879   Anisotropy =    10.5652

     23  H    Isotropic =    32.7063   Anisotropy =    12.8549

     24  H    Isotropic =    34.8189   Anisotropy =    19.3655

     25  H    Isotropic =    32.8650   Anisotropy =     8.1543

     26  H    Isotropic =    32.5585   Anisotropy =    11.9592

     27  H    Isotropic =    32.4072   Anisotropy =    10.1440

     28  H    Isotropic =    32.5003   Anisotropy =    14.2361

     29  H    Isotropic =    32.4877   Anisotropy =    12.0050

     30  H    Isotropic =    32.2866   Anisotropy =    10.6416

     31  H    Isotropic =    32.5068   Anisotropy =    14.2808

 The electronic state is 1-A.
 Alpha  occ. eigenvalues --  -20.23427 -11.08259 -11.04760 -11.04659 -11.04187
 Alpha  occ. eigenvalues --  -11.03660 -11.03381 -11.03304 -11.03236 -11.02966
 Alpha  occ. eigenvalues --  -11.02794  -1.27496  -1.08200  -1.03468  -0.96716
 Alpha  occ. eigenvalues --   -0.94542  -0.88696  -0.87896  -0.80437  -0.77361
 Alpha  occ. eigenvalues --   -0.73614  -0.68761  -0.63612  -0.60427  -0.59243
 Alpha  occ. eigenvalues --   -0.57591  -0.55417  -0.55232  -0.53399  -0.51098
 Alpha  occ. eigenvalues --   -0.50061  -0.49572  -0.49119  -0.48516  -0.47389
 Alpha  occ. eigenvalues --   -0.46598  -0.43767  -0.43279  -0.42227  -0.40530
 Alpha  occ. eigenvalues --   -0.38864  -0.38329  -0.36801  -0.32983
 Alpha virt. eigenvalues --    0.52139   0.56140   0.57612   0.59767   0.60453
 Alpha virt. eigenvalues --    0.61939   0.62372   0.63980   0.65020   0.66044
 Alpha virt. eigenvalues --    0.67454   0.68807   0.70860   0.71328   0.72004

 Mulliken atomic charges:
              1
     1  C   -0.170618
     2  C   -0.024348
     3  C    0.075319
     4  C   -0.101852
     5  C   -0.034852
     6  C   -0.102855
     7  C   -0.114699
     8  O   -0.312401
     9  C   -0.020361
    10  C   -0.173444
    11  C   -0.173128
    12  H    0.054598
    13  H    0.053517
    14  H    0.052674
    15  H    0.046228
    16  H    0.041076
    17  H    0.051690
    18  H    0.053344
    19  H    0.061372
    20  H    0.050136
    21  H    0.047706
    22  H    0.054840
    23  H    0.044905
    24  H    0.173300
    25  H    0.044588
    26  H    0.053896
    27  H    0.054039
    28  H    0.054204
    29  H    0.054957
    30  H    0.053516
    31  H    0.052652
 Sum of Mulliken atomic charges =   0.00000

 Dipole moment (field-independent basis, Debye):
    X=             -0.7392    Y=             -0.2943    Z=             -1.0728  Tot=              1.3357
 Quadrupole moment (field-independent basis, Debye-Ang):
   XX=            -67.6938   YY=            -67.4549   ZZ=            -68.1971
   XY=             -2.7707   XZ=             -0.3188   YZ=             -2.9517

 Summary of Natural Population Analysis:

                                       Natural Population
                Natural  -----------------------------------------------
    Atom  No    Charge         Core      Valence    Rydberg      Total
 -----------------------------------------------------------------------
      C    1   -0.12549      1.99998     4.12551    0.00000     6.12549
      C    2    0.01403      1.99997     3.98600    0.00000     5.98597
      C    3    0.14446      1.99988     3.85566    0.00000     5.85554
      C    4   -0.06542      1.99996     4.06546    0.00000     6.06542
      C    5   -0.01264      1.99995     4.01269    0.00000     6.01264
      C    6   -0.06535      1.99996     4.06539    0.00000     6.06535
      C    7   -0.09104      1.99996     4.09108    0.00000     6.09104
      O    8   -0.33393      1.99999     6.33394    0.00000     8.33393
      C    9    0.02168      1.99996     3.97836    0.00000     5.97832
      C   10   -0.12936      1.99997     4.12939    0.00000     6.12936
      C   11   -0.12863      1.99997     4.12867    0.00000     6.12863
      H   12    0.03725      0.00000     0.96275    0.00000     0.96275
      H   13    0.03614      0.00000     0.96386    0.00000     0.96386
      H   14    0.03537      0.00000     0.96463    0.00000     0.96463
      H   15    0.02227      0.00000     0.97773    0.00000     0.97773
      H   16    0.00453      0.00000     0.99547    0.00000     0.99547
      H   17    0.03061      0.00000     0.96939    0.00000     0.96939
      H   18    0.03213      0.00000     0.96787    0.00000     0.96787
      H   19    0.03501      0.00000     0.96499    0.00000     0.96499
      H   20    0.02945      0.00000     0.97055    0.00000     0.97055
      H   21    0.02699      0.00000     0.97301    0.00000     0.97301
      H   22    0.03427      0.00000     0.96573    0.00000     0.96573
      H   23    0.02503      0.00000     0.97497    0.00000     0.97497
      H   24    0.18567      0.00000     0.81433    0.00000     0.81433
      H   25    0.01885      0.00000     0.98115    0.00000     0.98115
      H   26    0.03652      0.00000     0.96348    0.00000     0.96348
      H   27    0.03642      0.00000     0.96358    0.00000     0.96358
      H   28    0.03699      0.00000     0.96301    0.00000     0.96301
      H   29    0.03726      0.00000     0.96274    0.00000     0.96274
      H   30    0.03560      0.00000     0.96440    0.00000     0.96440
      H   31    0.03535      0.00000     0.96465    0.00000     0.96465
 =======================================================================
   * Total *    0.00000     21.99954    66.00046    0.00000    88.00000

 Normal termination of Gaussian 09 at Tue Aug  3 16:34:09 2021.
