 Gaussian 09, Revision C.01,
 Gaussian 09:  EM64L-G09RevC.01 23-Sep-2011

 ------------------------
 # rhf/STO-3G nmr pop=nbo
 ------------------------

 99/9=1/99;
 -------
 comment
 -------
 Charge =  0 Multiplicity = 1

                         Standard orientation:
 ---------------------------------------------------------------------
 Center     Atomic      Atomic             Coordinates (Angstroms)
 Number     Number       Type             X           Y           Z
 ---------------------------------------------------------------------
      1          6           0       -3.292916   -0.712670   -0.741797
      2          6           0       -1.804572   -0.435134   -0.540725
      3          6           0       -0.056957    1.342729   -0.101191
      4          6           0       -0.118929   -0.712848    1.368595
      5          6           0        0.798845    0.227702    0.565241
      6          6           0       -1.207972   -1.373533    0.520977
      7          6           0       -1.557541    1.028453   -0.176712
      8          8           0        0.083239    2.557487    0.637971
      9          6           0        1.699667   -0.511287   -0.475087
     10          6           0        2.397175   -1.747565    0.106805
     11          6           0        2.784912    0.424942   -1.031949
     12          1           0       -3.862874   -0.509103    0.171117
     13          1           0       -3.700256   -0.084418   -1.540930
     14          1           0       -3.457973   -1.758824   -1.020322
     15          1           0       -1.305106   -0.636074   -1.497732
     16          1           0        0.288593    1.554560   -1.117426
     17          1           0       -0.604091   -0.124421    2.159878
     18          1           0        0.454189   -1.478411    1.902237
     19          1           0        1.476463    0.692465    1.295679
     20          1           0       -1.987487   -1.745224    1.197823
     21          1           0       -0.801689   -2.259476    0.017682
     22          1           0       -2.048380    1.274447    0.774835
     23          1           0       -2.020129    1.693071   -0.917905
     24          1           0        1.022869    2.806867    0.612210
     25          1           0        1.082223   -0.845196   -1.317698
     26          1           0        2.956290   -1.496701    1.014509
     27          1           0        1.679837   -2.537037    0.348954
     28          1           0        3.101620   -2.174798   -0.615563
     29          1           0        3.432234    0.797391   -0.230439
     30          1           0        2.360732    1.288628   -1.550295
     31          1           0        3.416752   -0.102373   -1.755327
 ---------------------------------------------------------------------

 SCF Done:  E(RHF) =  -459.611019606     A.U. after   10 cycles

      1  C    Isotropic =   220.9053   Anisotropy =    27.9883

      2  C    Isotropic =   217.4804   Anisotropy =     8.6687

      3  C    Isotropic =   186.6824   Anisotropy =    36.6150

      4  C    Isotropic =   219.1867   Anisotropy =    14.0474

      5  C    Isotropic =   206.4435   Anisotropy =    14.0542

      6  C    Isotropic =   217.9337   Anisotropy =    19.4817

      7  C    Isotropic =   216.2864   Anisotropy =    20.1015

      8  O    Isotropic =   346.9431   Anisotropy =    83.7182

      9  C    Isotropic =   213.0288   Anisotropy =    15.8994

     10  C    Isotropic =   221.7025   Anisotropy =    24.1550

     11  C    Isotropic =   221.5232   Anisotropy =    26.6562

     12  H    Isotropic =    32.5803   Anisotropy =    12.0234

     13  H    Isotropic =    32.4535   Anisotropy =    13.9942

     14  H    Isotropic =    32.3515   Anisotropy =    13.5412

     15  H    Isotropic =    32.8224   Anisotropy =     9.8523

     16  H    Isotropic =    31.8939   Anisotropy =     7.8717

     17  H    Isotropic =    32.2591   Anisotropy =    12.7248

     18  H    Isotropic =    32.4128   Anisotropy =    12.6008

     19  H    Isotropic =    32.9577   Anisotropy =    10.4990

     20  H    Isotropic =    32.5899   Anisotropy =    13.5395

     21  H    Isotropic =    32.4123   Anisotropy =    11.5130

     22  H    Isotropic =    32.2221   Anisotropy =    11.1181

     23  H    Isotropic =    32.0875   Anisotropy =    13.5902

     24  H    Isotropic =    34.8847   Anisotropy =    17.0410

     25  H    Isotropic =    32.8826   Anisotropy =     8.3810

     26  H    Isotropic =    32.6907   Anisotropy =    11.8317

     27  H    Isotropic =    32.4260   Anisotropy =    10.2640

     28  H    Isotropic =    32.5612   Anisotropy =    14.1358

     29  H    Isotropic =    32.8511   Anisotropy =    11.8487

     30  H    Isotropic =    32.5803   Anisotropy =    10.7627

     31  H    Isotropic =    32.5368   Anisotropy =    14.2083

 The electronic state is 1-A.
 Alpha  occ. eigenvalues --  -20.23488 -11.08241 -11.05037 -11.04622 -11.04311
 Alpha  occ. eigenvalues --  -11.03517 -11.03488 -11.03439 -11.03395 -11.03291
 Alpha  occ. eigenvalues --  -11.03137  -1.27517  -1.08291  -1.03726  -0.96853
 Alpha  occ. eigenvalues --   -0.94531  -0.89176  -0.87951  -0.80434  -0.77394
 Alpha  occ. eigenvalues --   -0.73761  -0.68886  -0.63335  -0.60866  -0.60142
 Alpha  occ. eigenvalues --   -0.57050  -0.56490  -0.53889  -0.53583  -0.51399
 Alpha  occ. eigenvalues --   -0.50614  -0.50117  -0.49328  -0.48262  -0.47250
 Alpha  occ. eigenvalues --   -0.46236  -0.44484  -0.43493  -0.42300  -0.40476
 Alpha  occ. eigenvalues --   -0.39471  -0.38660  -0.36738  -0.32807
 Alpha virt. eigenvalues --    0.52505   0.55980   0.57722   0.59495   0.60199
 Alpha virt. eigenvalues --    0.61680   0.62318   0.62920   0.64733   0.66432
 Alpha virt. eigenvalues --    0.67176   0.69459   0.70717   0.71095   0.71959

 Mulliken atomic charges:
              1
     1  C   -0.170324
     2  C   -0.024716
     3  C    0.074419
     4  C   -0.101611
     5  C   -0.042260
     6  C   -0.102741
     7  C   -0.104914
     8  O   -0.311750
     9  C   -0.021818
    10  C   -0.173641
    11  C   -0.175284
    12  H    0.054116
    13  H    0.053894
    14  H    0.054023
    15  H    0.045539
    16  H    0.041441
    17  H    0.052118
    18  H    0.052720
    19  H    0.046761
    20  H    0.050678
    21  H    0.047238
    22  H    0.059436
    23  H    0.055026
    24  H    0.173616
    25  H    0.046856
    26  H    0.053000
    27  H    0.055322
    28  H    0.054470
    29  H    0.051329
    30  H    0.051282
    31  H    0.055775
 Sum of Mulliken atomic charges =   0.00000

 Dipole moment (field-independent basis, Debye):
    X=              0.9583    Y=             -0.8567    Z=             -0.6000  Tot=              1.4186
 Quadrupole moment (field-independent basis, Debye-Ang):
   XX=            -66.4494   YY=            -70.9865   ZZ=            -67.6444
   XY=              2.8923   XZ=              0.5448   YZ=             -1.4815

 Summary of Natural Population Analysis:

                                       Natural Population
                Natural  -----------------------------------------------
    Atom  No    Charge         Core      Valence    Rydberg      Total
 -----------------------------------------------------------------------
      C    1   -0.12521      1.99997     4.12524    0.00000     6.12521
      C    2    0.01353      1.99997     3.98650    0.00000     5.98647
      C    3    0.14344      1.99988     3.85668    0.00000     5.85656
      C    4   -0.06485      1.99996     4.06490    0.00000     6.06485
      C    5   -0.02036      1.99995     4.02041    0.00000     6.02036
      C    6   -0.06528      1.99996     4.06532    0.00000     6.06528
      C    7   -0.08138      1.99996     4.08142    0.00000     6.08138
      O    8   -0.33307      1.99999     6.33308    0.00000     8.33307
      C    9    0.01994      1.99996     3.98010    0.00000     5.98006
      C   10   -0.12963      1.99997     4.12966    0.00000     6.12963
      C   11   -0.13044      1.99997     4.13047    0.00000     6.13044
      H   12    0.03669      0.00000     0.96331    0.00000     0.96331
      H   13    0.03649      0.00000     0.96351    0.00000     0.96351
      H   14    0.03672      0.00000     0.96328    0.00000     0.96328
      H   15    0.02161      0.00000     0.97839    0.00000     0.97839
      H   16    0.00500      0.00000     0.99500    0.00000     0.99500
      H   17    0.03099      0.00000     0.96901    0.00000     0.96901
      H   18    0.03148      0.00000     0.96852    0.00000     0.96852
      H   19    0.02187      0.00000     0.97813    0.00000     0.97813
      H   20    0.02997      0.00000     0.97003    0.00000     0.97003
      H   21    0.02656      0.00000     0.97344    0.00000     0.97344
      H   22    0.03835      0.00000     0.96165    0.00000     0.96165
      H   23    0.03409      0.00000     0.96591    0.00000     0.96591
      H   24    0.18589      0.00000     0.81411    0.00000     0.81411
      H   25    0.02108      0.00000     0.97892    0.00000     0.97892
      H   26    0.03571      0.00000     0.96429    0.00000     0.96429
      H   27    0.03764      0.00000     0.96236    0.00000     0.96236
      H   28    0.03722      0.00000     0.96278    0.00000     0.96278
      H   29    0.03398      0.00000     0.96602    0.00000     0.96602
      H   30    0.03363      0.00000     0.96637    0.00000     0.96637
      H   31    0.03836      0.00000     0.96164    0.00000     0.96164
 =======================================================================
   * Total *    0.00000     21.99954    66.00046    0.00000    88.00000

 Normal termination of Gaussian 09 at Tue Aug  3 16:33:24 2021.
