 Gaussian 09, Revision C.01,
 Gaussian 09:  EM64L-G09RevC.01 23-Sep-2011

 ------------------------
 # rhf/STO-3G nmr pop=nbo
 ------------------------

 99/9=1/99;
 -------
 comment
 -------
 Charge =  0 Multiplicity = 1

                         Standard orientation:
 ---------------------------------------------------------------------
 Center     Atomic      Atomic             Coordinates (Angstroms)
 Number     Number       Type             X           Y           Z
 ---------------------------------------------------------------------
      1          6           0       -2.784011   -0.161649    1.093024
      2          6           0       -2.251396   -0.497088   -0.303072
      3          6           0       -0.241350    1.124421   -0.445176
      4          6           0        0.181059   -1.356870   -0.466301
      5          6           0        0.544302   -0.032221    0.213651
      6          6           0       -1.298007   -1.705527   -0.268208
      7          6           0       -1.618770    0.720583   -0.990439
      8          8           0       -0.382011    2.196734    0.487512
      9          6           0        2.072511    0.263843    0.257430
     10          6           0        2.771428    0.146219   -1.100783
     11          6           0        2.785463   -0.638865    1.271989
     12          1           0       -3.442283    0.712793    1.059030
     13          1           0       -3.369135   -0.999504    1.488138
     14          1           0       -1.982613    0.042717    1.807450
     15          1           0       -3.129620   -0.786767   -0.896290
     16          1           0        0.323324    1.544770   -1.283216
     17          1           0        0.787582   -2.183220   -0.080929
     18          1           0        0.387649   -1.293461   -1.542187
     19          1           0        0.225736   -0.097087    1.263289
     20          1           0       -1.416162   -2.252715    0.675553
     21          1           0       -1.585708   -2.412840   -1.056694
     22          1           0       -2.309620    1.571935   -0.958765
     23          1           0       -1.495512    0.461424   -2.051069
     24          1           0       -0.917852    1.882061    1.233922
     25          1           0        2.203787    1.296184    0.608338
     26          1           0        2.759417   -0.882706   -1.474697
     27          1           0        2.307672    0.788298   -1.854350
     28          1           0        3.820670    0.450658   -1.015988
     29          1           0        2.760417   -1.690762    0.971322
     30          1           0        2.324169   -0.555079    2.261559
     31          1           0        3.836786   -0.347645    1.372805
 ---------------------------------------------------------------------

 SCF Done:  E(RHF) =  -459.609897753     A.U. after   10 cycles

      1  C    Isotropic =   220.1781   Anisotropy =    26.5533

      2  C    Isotropic =   217.3614   Anisotropy =     4.0747

      3  C    Isotropic =   189.1996   Anisotropy =    36.0152

      4  C    Isotropic =   220.9198   Anisotropy =    11.8768

      5  C    Isotropic =   208.7912   Anisotropy =    15.6506

      6  C    Isotropic =   217.3099   Anisotropy =    16.6438

      7  C    Isotropic =   215.6883   Anisotropy =    12.0838

      8  O    Isotropic =   344.8680   Anisotropy =    64.5950

      9  C    Isotropic =   213.8021   Anisotropy =    15.9536

     10  C    Isotropic =   224.1304   Anisotropy =    20.8478

     11  C    Isotropic =   221.0953   Anisotropy =    27.0846

     12  H    Isotropic =    32.7252   Anisotropy =    13.7877

     13  H    Isotropic =    32.4646   Anisotropy =    14.1776

     14  H    Isotropic =    33.1758   Anisotropy =     7.4732

     15  H    Isotropic =    32.3836   Anisotropy =    15.3862

     16  H    Isotropic =    31.4305   Anisotropy =     9.8403

     17  H    Isotropic =    32.5932   Anisotropy =    12.4313

     18  H    Isotropic =    32.9194   Anisotropy =    10.8027

     19  H    Isotropic =    33.1832   Anisotropy =     7.5629

     20  H    Isotropic =    32.6734   Anisotropy =    12.0923

     21  H    Isotropic =    32.1932   Anisotropy =    15.0278

     22  H    Isotropic =    32.3287   Anisotropy =    13.8406

     23  H    Isotropic =    32.2810   Anisotropy =    13.0369

     24  H    Isotropic =    35.1576   Anisotropy =    13.2294

     25  H    Isotropic =    32.0309   Anisotropy =    11.1619

     26  H    Isotropic =    32.7990   Anisotropy =    10.1534

     27  H    Isotropic =    32.5422   Anisotropy =    10.9798

     28  H    Isotropic =    32.5099   Anisotropy =    14.9336

     29  H    Isotropic =    32.5572   Anisotropy =    10.0474

     30  H    Isotropic =    32.5845   Anisotropy =    12.2849

     31  H    Isotropic =    32.3943   Anisotropy =    14.6835

 The electronic state is 1-A.
 Alpha  occ. eigenvalues --  -20.23373 -11.08314 -11.04937 -11.04528 -11.04345
 Alpha  occ. eigenvalues --  -11.03864 -11.03781 -11.03775 -11.03696 -11.02962
 Alpha  occ. eigenvalues --  -11.02945  -1.27573  -1.08330  -1.03810  -0.96892
 Alpha  occ. eigenvalues --   -0.94738  -0.89014  -0.88797  -0.80660  -0.78477
 Alpha  occ. eigenvalues --   -0.72831  -0.69249  -0.62720  -0.60832  -0.59237
 Alpha  occ. eigenvalues --   -0.57034  -0.55943  -0.54915  -0.53755  -0.52109
 Alpha  occ. eigenvalues --   -0.52045  -0.50739  -0.50093  -0.48802  -0.46543
 Alpha  occ. eigenvalues --   -0.45355  -0.44215  -0.43310  -0.42374  -0.41511
 Alpha  occ. eigenvalues --   -0.39971  -0.39142  -0.35681  -0.32582
 Alpha virt. eigenvalues --    0.53944   0.54629   0.57695   0.59255   0.60049
 Alpha virt. eigenvalues --    0.61129   0.62180   0.63221   0.64288   0.66666
 Alpha virt. eigenvalues --    0.67044   0.67914   0.68335   0.71006   0.71891

 Mulliken atomic charges:
              1
     1  C   -0.175430
     2  C   -0.027374
     3  C    0.073127
     4  C   -0.103409
     5  C   -0.039086
     6  C   -0.102550
     7  C   -0.116642
     8  O   -0.314312
     9  C   -0.019995
    10  C   -0.175389
    11  C   -0.172944
    12  H    0.054465
    13  H    0.056569
    14  H    0.045844
    15  H    0.050267
    16  H    0.059431
    17  H    0.052972
    18  H    0.049031
    19  H    0.042241
    20  H    0.049673
    21  H    0.050192
    22  H    0.060220
    23  H    0.051177
    24  H    0.175453
    25  H    0.056591
    26  H    0.053274
    27  H    0.053265
    28  H    0.055172
    29  H    0.052014
    30  H    0.051736
    31  H    0.054415
 Sum of Mulliken atomic charges =   0.00000

 Dipole moment (field-independent basis, Debye):
    X=             -0.5840    Y=             -1.4132    Z=              0.0721  Tot=              1.5308
 Quadrupole moment (field-independent basis, Debye-Ang):
   XX=            -66.6031   YY=            -72.9029   ZZ=            -66.1178
   XY=             -0.3641   XZ=             -0.6930   YZ=             -0.0010

 Summary of Natural Population Analysis:

                                       Natural Population
                Natural  -----------------------------------------------
    Atom  No    Charge         Core      Valence    Rydberg      Total
 -----------------------------------------------------------------------
      C    1   -0.12983      1.99997     4.12986    0.00000     6.12983
      C    2    0.01092      1.99997     3.98912    0.00000     5.98908
      C    3    0.13987      1.99989     3.86024    0.00000     5.86013
      C    4   -0.06632      1.99996     4.06636    0.00000     6.06632
      C    5   -0.01853      1.99995     4.01858    0.00000     6.01853
      C    6   -0.06463      1.99996     4.06467    0.00000     6.06463
      C    7   -0.09346      1.99996     4.09350    0.00000     6.09346
      O    8   -0.33516      1.99999     6.33517    0.00000     8.33516
      C    9    0.02052      1.99996     3.97952    0.00000     5.97948
      C   10   -0.13135      1.99997     4.13138    0.00000     6.13135
      C   11   -0.12844      1.99997     4.12847    0.00000     6.12844
      H   12    0.03702      0.00000     0.96298    0.00000     0.96298
      H   13    0.03928      0.00000     0.96072    0.00000     0.96072
      H   14    0.02900      0.00000     0.97100    0.00000     0.97100
      H   15    0.02597      0.00000     0.97403    0.00000     0.97403
      H   16    0.02375      0.00000     0.97625    0.00000     0.97625
      H   17    0.03213      0.00000     0.96787    0.00000     0.96787
      H   18    0.02830      0.00000     0.97170    0.00000     0.97170
      H   19    0.01804      0.00000     0.98196    0.00000     0.98196
      H   20    0.02872      0.00000     0.97128    0.00000     0.97128
      H   21    0.02937      0.00000     0.97063    0.00000     0.97063
      H   22    0.03967      0.00000     0.96033    0.00000     0.96033
      H   23    0.03127      0.00000     0.96873    0.00000     0.96873
      H   24    0.18738      0.00000     0.81262    0.00000     0.81262
      H   25    0.03045      0.00000     0.96955    0.00000     0.96955
      H   26    0.03598      0.00000     0.96402    0.00000     0.96402
      H   27    0.03588      0.00000     0.96412    0.00000     0.96412
      H   28    0.03814      0.00000     0.96186    0.00000     0.96186
      H   29    0.03452      0.00000     0.96548    0.00000     0.96548
      H   30    0.03444      0.00000     0.96556    0.00000     0.96556
      H   31    0.03710      0.00000     0.96290    0.00000     0.96290
 =======================================================================
   * Total *    0.00000     21.99955    66.00045    0.00000    88.00000

 Normal termination of Gaussian 09 at Tue Aug  3 16:33:42 2021.
