 Gaussian 09, Revision C.01,
 Gaussian 09:  EM64L-G09RevC.01 23-Sep-2011

 ------------------------
 # rhf/STO-3G nmr pop=nbo
 ------------------------

 99/9=1/99;
 -------
 comment
 -------
 Charge =  0 Multiplicity = 1

                         Standard orientation:
 ---------------------------------------------------------------------
 Center     Atomic      Atomic             Coordinates (Angstroms)
 Number     Number       Type             X           Y           Z
 ---------------------------------------------------------------------
      1          6           0        3.365600    0.224048    0.199618
      2          6           0        2.061897   -0.538337    0.441373
      3          6           0       -0.032484    0.946243    0.242741
      4          6           0        0.037103   -1.405018   -0.789303
      5          6           0       -0.771712   -0.097196   -0.631759
      6          6           0        1.532562   -1.127893   -0.874111
      7          6           0        1.012088    0.322063    1.172686
      8          8           0        0.622163    1.874439   -0.628113
      9          6           0       -2.228344   -0.403744   -0.177147
     10          6           0       -3.156546    0.786887   -0.448189
     11          6           0       -2.357650   -0.829835    1.288111
     12          1           0        3.211852    1.092376   -0.448649
     13          1           0        3.789345    0.578556    1.145159
     14          1           0        4.109365   -0.424370   -0.275790
     15          1           0        2.307647   -1.374173    1.110931
     16          1           0       -0.737988    1.536918    0.834130
     17          1           0       -0.291990   -1.923368   -1.698275
     18          1           0       -0.148136   -2.093726    0.042140
     19          1           0       -0.848523    0.323158   -1.645998
     20          1           0        1.727022   -0.448544   -1.713669
     21          1           0        2.070675   -2.056928   -1.097807
     22          1           0        1.513337    1.107212    1.751922
     23          1           0        0.492267   -0.311585    1.902218
     24          1           0        1.064621    2.536928   -0.070476
     25          1           0       -2.597887   -1.235078   -0.793114
     26          1           0       -2.899892    1.655765    0.165351
     27          1           0       -3.108522    1.086895   -1.500265
     28          1           0       -4.196399    0.521015   -0.228582
     29          1           0       -2.073776   -0.025669    1.973921
     30          1           0       -1.740347   -1.703688    1.512873
     31          1           0       -3.395065   -1.100515    1.514765
 ---------------------------------------------------------------------

 SCF Done:  E(RHF) =  -459.612311433     A.U. after   10 cycles

      1  C    Isotropic =   220.1706   Anisotropy =    27.9319

      2  C    Isotropic =   216.2101   Anisotropy =     8.5370

      3  C    Isotropic =   189.3756   Anisotropy =    39.9643

      4  C    Isotropic =   217.9034   Anisotropy =    15.4675

      5  C    Isotropic =   208.6740   Anisotropy =    12.7872

      6  C    Isotropic =   217.2103   Anisotropy =    16.4189

      7  C    Isotropic =   215.4024   Anisotropy =    13.6536

      8  O    Isotropic =   350.5136   Anisotropy =   100.9328

      9  C    Isotropic =   213.1649   Anisotropy =    16.5979

     10  C    Isotropic =   221.1823   Anisotropy =    26.9427

     11  C    Isotropic =   224.4537   Anisotropy =    19.6565

     12  H    Isotropic =    32.4307   Anisotropy =     9.4278

     13  H    Isotropic =    32.6233   Anisotropy =    13.7535

     14  H    Isotropic =    32.3832   Anisotropy =    14.3181

     15  H    Isotropic =    32.4236   Anisotropy =    13.4416

     16  H    Isotropic =    32.0315   Anisotropy =     9.1215

     17  H    Isotropic =    32.3356   Anisotropy =    14.5710

     18  H    Isotropic =    32.7353   Anisotropy =     9.7705

     19  H    Isotropic =    31.9486   Anisotropy =    10.4728

     20  H    Isotropic =    32.3689   Anisotropy =    10.2669

     21  H    Isotropic =    32.2945   Anisotropy =    15.0650

     22  H    Isotropic =    32.9672   Anisotropy =    12.4874

     23  H    Isotropic =    32.4884   Anisotropy =    10.8732

     24  H    Isotropic =    35.1636   Anisotropy =    18.5366

     25  H    Isotropic =    32.4240   Anisotropy =    12.4121

     26  H    Isotropic =    32.4651   Anisotropy =     9.5404

     27  H    Isotropic =    32.3637   Anisotropy =    12.9802

     28  H    Isotropic =    32.4489   Anisotropy =    14.6781

     29  H    Isotropic =    32.9772   Anisotropy =     8.8800

     30  H    Isotropic =    32.6387   Anisotropy =    10.3496

     31  H    Isotropic =    32.5948   Anisotropy =    14.9492

 The electronic state is 1-A.
 Alpha  occ. eigenvalues --  -20.23388 -11.08395 -11.04704 -11.04304 -11.04085
 Alpha  occ. eigenvalues --  -11.03650 -11.03217 -11.03196 -11.03036 -11.02835
 Alpha  occ. eigenvalues --  -11.02755  -1.27571  -1.07738  -1.03533  -0.96737
 Alpha  occ. eigenvalues --   -0.94456  -0.89068  -0.87671  -0.79943  -0.78281
 Alpha  occ. eigenvalues --   -0.72697  -0.67943  -0.63334  -0.61170  -0.58490
 Alpha  occ. eigenvalues --   -0.57816  -0.55705  -0.53476  -0.53268  -0.52514
 Alpha  occ. eigenvalues --   -0.51662  -0.50241  -0.49509  -0.48304  -0.46566
 Alpha  occ. eigenvalues --   -0.45272  -0.43080  -0.42787  -0.42012  -0.40650
 Alpha  occ. eigenvalues --   -0.39619  -0.38007  -0.36742  -0.32904
 Alpha virt. eigenvalues --    0.52489   0.56379   0.58028   0.60153   0.60763
 Alpha virt. eigenvalues --    0.60971   0.61513   0.64571   0.65335   0.66421
 Alpha virt. eigenvalues --    0.68480   0.69244   0.70117   0.71297   0.71686

 Mulliken atomic charges:
              1
     1  C   -0.172584
     2  C   -0.021524
     3  C    0.073874
     4  C   -0.100026
     5  C   -0.034764
     6  C   -0.100566
     7  C   -0.115380
     8  O   -0.314657
     9  C   -0.018939
    10  C   -0.173097
    11  C   -0.176430
    12  H    0.057601
    13  H    0.049313
    14  H    0.053502
    15  H    0.045547
    16  H    0.042301
    17  H    0.049816
    18  H    0.045449
    19  H    0.061115
    20  H    0.057007
    21  H    0.048858
    22  H    0.046332
    23  H    0.052602
    24  H    0.173405
    25  H    0.049215
    26  H    0.052687
    27  H    0.055184
    28  H    0.052734
    29  H    0.052390
    30  H    0.053673
    31  H    0.055364
 Sum of Mulliken atomic charges =   0.00000

 Dipole moment (field-independent basis, Debye):
    X=             -0.0485    Y=             -0.1369    Z=              1.2382  Tot=              1.2467
 Quadrupole moment (field-independent basis, Debye-Ang):
   XX=            -67.6450   YY=            -66.3549   ZZ=            -68.4051
   XY=              0.9624   XZ=              1.0239   YZ=              2.9026

 Summary of Natural Population Analysis:

                                       Natural Population
                Natural  -----------------------------------------------
    Atom  No    Charge         Core      Valence    Rydberg      Total
 -----------------------------------------------------------------------
      C    1   -0.12780      1.99998     4.12783    0.00000     6.12780
      C    2    0.01730      1.99997     3.98274    0.00000     5.98270
      C    3    0.14274      1.99988     3.85738    0.00000     5.85726
      C    4   -0.06246      1.99996     4.06250    0.00000     6.06246
      C    5   -0.01336      1.99995     4.01341    0.00000     6.01336
      C    6   -0.06424      1.99996     4.06428    0.00000     6.06424
      C    7   -0.09145      1.99996     4.09149    0.00000     6.09145
      O    8   -0.33611      1.99999     6.33612    0.00000     8.33611
      C    9    0.02168      1.99996     3.97835    0.00000     5.97832
      C   10   -0.12896      1.99997     4.12899    0.00000     6.12896
      C   11   -0.13243      1.99997     4.13246    0.00000     6.13243
      H   12    0.03966      0.00000     0.96034    0.00000     0.96034
      H   13    0.03230      0.00000     0.96770    0.00000     0.96770
      H   14    0.03632      0.00000     0.96368    0.00000     0.96368
      H   15    0.02116      0.00000     0.97884    0.00000     0.97884
      H   16    0.00635      0.00000     0.99365    0.00000     0.99365
      H   17    0.02907      0.00000     0.97093    0.00000     0.97093
      H   18    0.02424      0.00000     0.97576    0.00000     0.97576
      H   19    0.03505      0.00000     0.96495    0.00000     0.96495
      H   20    0.03545      0.00000     0.96455    0.00000     0.96455
      H   21    0.02854      0.00000     0.97146    0.00000     0.97146
      H   22    0.02661      0.00000     0.97339    0.00000     0.97339
      H   23    0.03241      0.00000     0.96759    0.00000     0.96759
      H   24    0.18579      0.00000     0.81421    0.00000     0.81421
      H   25    0.02394      0.00000     0.97606    0.00000     0.97606
      H   26    0.03516      0.00000     0.96484    0.00000     0.96484
      H   27    0.03760      0.00000     0.96240    0.00000     0.96240
      H   28    0.03552      0.00000     0.96448    0.00000     0.96448
      H   29    0.03521      0.00000     0.96479    0.00000     0.96479
      H   30    0.03632      0.00000     0.96368    0.00000     0.96368
      H   31    0.03839      0.00000     0.96161    0.00000     0.96161
 =======================================================================
   * Total *    0.00000     21.99954    66.00046    0.00000    88.00000

 Normal termination of Gaussian 09 at Tue Aug  3 16:33:26 2021.
