 Gaussian 09, Revision C.01,
 Gaussian 09:  EM64L-G09RevC.01 23-Sep-2011

 ------------------------
 # rhf/STO-3G nmr pop=nbo
 ------------------------

 99/9=1/99;
 -------
 comment
 -------
 Charge =  0 Multiplicity = 1

                         Standard orientation:
 ---------------------------------------------------------------------
 Center     Atomic      Atomic             Coordinates (Angstroms)
 Number     Number       Type             X           Y           Z
 ---------------------------------------------------------------------
      1          6           0        3.012385   -0.431184   -0.464408
      2          6           0        1.847382   -0.874760    0.423199
      3          6           0        0.329354    1.220744    0.500109
      4          6           0       -0.108381   -0.642076   -1.209156
      5          6           0       -0.704773    0.553548   -0.438831
      6          6           0        0.757130   -1.587230   -0.378440
      7          6           0        1.256937    0.268321    1.258206
      8          8           0        1.137426    2.135810   -0.249498
      9          6           0       -2.075678    0.284514    0.257215
     10          6           0       -2.117431   -0.880988    1.241833
     11          6           0       -3.197021    0.100470   -0.777094
     12          1           0        3.499789   -1.304590   -0.911933
     13          1           0        2.699644    0.218020   -1.284542
     14          1           0        3.767687    0.101553    0.122787
     15          1           0        2.268568   -1.604445    1.128456
     16          1           0       -0.189409    1.847009    1.234514
     17          1           0        0.509614   -0.246247   -2.025604
     18          1           0       -0.896832   -1.220134   -1.702192
     19          1           0       -0.933168    1.303924   -1.211834
     20          1           0        1.210195   -2.334365   -1.042004
     21          1           0        0.127680   -2.153502    0.314636
     22          1           0        2.075567    0.838583    1.715707
     23          1           0        0.699602   -0.176795    2.089401
     24          1           0        1.311264    1.753309   -1.124478
     25          1           0       -2.332872    1.190960    0.822383
     26          1           0       -2.001068   -1.843943    0.736699
     27          1           0       -1.354154   -0.790312    2.015693
     28          1           0       -3.086165   -0.906652    1.754527
     29          1           0       -3.077602   -0.823671   -1.350587
     30          1           0       -3.224109    0.939269   -1.480459
     31          1           0       -4.173064    0.057387   -0.280991
 ---------------------------------------------------------------------

 SCF Done:  E(RHF) =  -459.606880582     A.U. after   10 cycles

      1  C    Isotropic =   221.7901   Anisotropy =    25.7411

      2  C    Isotropic =   217.6704   Anisotropy =     5.5417

      3  C    Isotropic =   187.9735   Anisotropy =    38.6431

      4  C    Isotropic =   223.5061   Anisotropy =    14.1506

      5  C    Isotropic =   209.0765   Anisotropy =    21.3171

      6  C    Isotropic =   219.4326   Anisotropy =    11.2888

      7  C    Isotropic =   216.9621   Anisotropy =     8.3053

      8  O    Isotropic =   346.9773   Anisotropy =    60.7086

      9  C    Isotropic =   211.6953   Anisotropy =    19.8786

     10  C    Isotropic =   223.2594   Anisotropy =    18.8082

     11  C    Isotropic =   220.4601   Anisotropy =    28.6154

     12  H    Isotropic =    32.6040   Anisotropy =    14.6399

     13  H    Isotropic =    33.0310   Anisotropy =     8.0389

     14  H    Isotropic =    32.4303   Anisotropy =    14.0631

     15  H    Isotropic =    32.4452   Anisotropy =    14.9276

     16  H    Isotropic =    31.5327   Anisotropy =    10.8303

     17  H    Isotropic =    33.0555   Anisotropy =    12.4945

     18  H    Isotropic =    32.6676   Anisotropy =    12.6077

     19  H    Isotropic =    32.6445   Anisotropy =    11.2583

     20  H    Isotropic =    32.7156   Anisotropy =    14.4709

     21  H    Isotropic =    32.7302   Anisotropy =    11.6008

     22  H    Isotropic =    32.0674   Anisotropy =    14.4068

     23  H    Isotropic =    32.5514   Anisotropy =    12.0550

     24  H    Isotropic =    34.9064   Anisotropy =    11.6073

     25  H    Isotropic =    32.4406   Anisotropy =    12.0375

     26  H    Isotropic =    32.8325   Anisotropy =     8.7056

     27  H    Isotropic =    32.7620   Anisotropy =     9.5803

     28  H    Isotropic =    32.5471   Anisotropy =    15.0320

     29  H    Isotropic =    32.5556   Anisotropy =     9.8284

     30  H    Isotropic =    32.5351   Anisotropy =    13.0351

     31  H    Isotropic =    32.4168   Anisotropy =    14.5675

 The electronic state is 1-A.
 Alpha  occ. eigenvalues --  -20.23110 -11.08380 -11.05135 -11.04750 -11.04713
 Alpha  occ. eigenvalues --  -11.04302 -11.03815 -11.03421 -11.03418 -11.03278
 Alpha  occ. eigenvalues --  -11.03261  -1.27418  -1.08216  -1.03895  -0.97092
 Alpha  occ. eigenvalues --   -0.95093  -0.89743  -0.88539  -0.80937  -0.78502
 Alpha  occ. eigenvalues --   -0.73437  -0.67398  -0.64071  -0.61432  -0.59048
 Alpha  occ. eigenvalues --   -0.57191  -0.56456  -0.54546  -0.53697  -0.52157
 Alpha  occ. eigenvalues --   -0.51224  -0.50707  -0.50083  -0.49052  -0.47439
 Alpha  occ. eigenvalues --   -0.46434  -0.44574  -0.43191  -0.42103  -0.41104
 Alpha  occ. eigenvalues --   -0.39899  -0.38738  -0.35953  -0.32689
 Alpha virt. eigenvalues --    0.52830   0.55067   0.56897   0.59065   0.59270
 Alpha virt. eigenvalues --    0.60843   0.61768   0.63485   0.64676   0.65572
 Alpha virt. eigenvalues --    0.67697   0.68304   0.70786   0.71204   0.71659

 Mulliken atomic charges:
              1
     1  C   -0.173585
     2  C   -0.025945
     3  C    0.072940
     4  C   -0.106991
     5  C   -0.045071
     6  C   -0.103852
     7  C   -0.112983
     8  O   -0.315251
     9  C   -0.019133
    10  C   -0.177490
    11  C   -0.172845
    12  H    0.053471
    13  H    0.046644
    14  H    0.058467
    15  H    0.049723
    16  H    0.057296
    17  H    0.043092
    18  H    0.055867
    19  H    0.051529
    20  H    0.050653
    21  H    0.051886
    22  H    0.060907
    23  H    0.049576
    24  H    0.175260
    25  H    0.049725
    26  H    0.054899
    27  H    0.055211
    28  H    0.055662
    29  H    0.052393
    30  H    0.053262
    31  H    0.054684
 Sum of Mulliken atomic charges =   0.00000

 Dipole moment (field-independent basis, Debye):
    X=             -0.5927    Y=             -1.4172    Z=             -0.4173  Tot=              1.5918
 Quadrupole moment (field-independent basis, Debye-Ang):
   XX=            -68.1673   YY=            -72.7093   ZZ=            -65.8072
   XY=             -2.4330   XZ=             -1.0048   YZ=             -0.5450

 Summary of Natural Population Analysis:

                                       Natural Population
                Natural  -----------------------------------------------
    Atom  No    Charge         Core      Valence    Rydberg      Total
 -----------------------------------------------------------------------
      C    1   -0.12853      1.99997     4.12856    0.00000     6.12853
      C    2    0.01223      1.99997     3.98780    0.00000     5.98777
      C    3    0.14052      1.99989     3.85959    0.00000     5.85948
      C    4   -0.06917      1.99995     4.06922    0.00000     6.06917
      C    5   -0.02258      1.99995     4.02263    0.00000     6.02258
      C    6   -0.06758      1.99996     4.06762    0.00000     6.06758
      C    7   -0.09065      1.99996     4.09070    0.00000     6.09065
      O    8   -0.33658      1.99999     6.33659    0.00000     8.33658
      C    9    0.02240      1.99996     3.97764    0.00000     5.97760
      C   10   -0.13443      1.99997     4.13446    0.00000     6.13443
      C   11   -0.12829      1.99997     4.12833    0.00000     6.12829
      H   12    0.03634      0.00000     0.96366    0.00000     0.96366
      H   13    0.02966      0.00000     0.97034    0.00000     0.97034
      H   14    0.04092      0.00000     0.95908    0.00000     0.95908
      H   15    0.02583      0.00000     0.97417    0.00000     0.97417
      H   16    0.02146      0.00000     0.97854    0.00000     0.97854
      H   17    0.02293      0.00000     0.97707    0.00000     0.97707
      H   18    0.03483      0.00000     0.96517    0.00000     0.96517
      H   19    0.02652      0.00000     0.97348    0.00000     0.97348
      H   20    0.03047      0.00000     0.96953    0.00000     0.96953
      H   21    0.03066      0.00000     0.96934    0.00000     0.96934
      H   22    0.04023      0.00000     0.95977    0.00000     0.95977
      H   23    0.02947      0.00000     0.97053    0.00000     0.97053
      H   24    0.18715      0.00000     0.81285    0.00000     0.81285
      H   25    0.02416      0.00000     0.97584    0.00000     0.97584
      H   26    0.03781      0.00000     0.96219    0.00000     0.96219
      H   27    0.03757      0.00000     0.96243    0.00000     0.96243
      H   28    0.03897      0.00000     0.96103    0.00000     0.96103
      H   29    0.03473      0.00000     0.96527    0.00000     0.96527
      H   30    0.03567      0.00000     0.96433    0.00000     0.96433
      H   31    0.03727      0.00000     0.96273    0.00000     0.96273
 =======================================================================
   * Total *    0.00000     21.99953    66.00047    0.00000    88.00000

 Normal termination of Gaussian 09 at Sun May 24 02:07:21 2020.
