 Gaussian 09, Revision C.01,
 Gaussian 09:  EM64L-G09RevC.01 23-Sep-2011

 ------------------------
 # rhf/STO-3G nmr pop=nbo
 ------------------------

 99/9=1/99;
 -------
 comment
 -------
 Charge =  0 Multiplicity = 1

                         Standard orientation:
 ---------------------------------------------------------------------
 Center     Atomic      Atomic             Coordinates (Angstroms)
 Number     Number       Type             X           Y           Z
 ---------------------------------------------------------------------
      1          6           0       -3.375599    0.264358    0.163007
      2          6           0       -1.955319    0.544198    0.656874
      3          6           0       -0.224333   -1.156854   -0.199526
      4          6           0        0.287863    1.360750   -0.168214
      5          6           0        0.783833   -0.042652   -0.579909
      6          6           0       -1.224349    1.482576   -0.314162
      7          6           0       -1.170602   -0.753339    0.934600
      8          8           0       -1.002920   -1.471317   -1.358579
      9          6           0        2.227168   -0.352404   -0.083955
     10          6           0        2.361596   -0.493157    1.434905
     11          6           0        3.236849    0.680884   -0.595959
     12          1           0       -3.928301   -0.338601    0.891192
     13          1           0       -3.926034    1.200437    0.020123
     14          1           0       -3.373326   -0.274274   -0.789778
     15          1           0       -2.055454    1.065644    1.618845
     16          1           0        0.303254   -2.079040    0.067290
     17          1           0        0.770406    2.117891   -0.797672
     18          1           0        0.562143    1.593199    0.866380
     19          1           0        0.843176   -0.030418   -1.679048
     20          1           0       -1.504968    1.266182   -1.352764
     21          1           0       -1.533630    2.516827   -0.120529
     22          1           0       -1.868651   -1.572100    1.147972
     23          1           0       -0.579656   -0.609592    1.847555
     24          1           0       -1.613737   -2.187758   -1.115190
     25          1           0        2.515815   -1.318051   -0.521846
     26          1           0        2.109205    0.433678    1.957948
     27          1           0        1.722736   -1.291595    1.822469
     28          1           0        3.392518   -0.750062    1.703602
     29          1           0        3.082258    1.662295   -0.136132
     30          1           0        3.162769    0.794627   -1.682487
     31          1           0        4.260189    0.365087   -0.365255
 ---------------------------------------------------------------------

 SCF Done:  E(RHF) =  -459.612483671     A.U. after   10 cycles

      1  C    Isotropic =   220.1542   Anisotropy =    28.0107

      2  C    Isotropic =   216.2341   Anisotropy =     8.4974

      3  C    Isotropic =   186.9626   Anisotropy =    37.9028

      4  C    Isotropic =   220.0690   Anisotropy =    11.1252

      5  C    Isotropic =   208.9764   Anisotropy =    17.8493

      6  C    Isotropic =   217.2739   Anisotropy =    16.9743

      7  C    Isotropic =   215.4499   Anisotropy =    13.1388

      8  O    Isotropic =   350.1101   Anisotropy =   101.3683

      9  C    Isotropic =   212.2095   Anisotropy =    17.8490

     10  C    Isotropic =   224.5071   Anisotropy =    19.9389

     11  C    Isotropic =   221.3437   Anisotropy =    26.0970

     12  H    Isotropic =    32.6176   Anisotropy =    13.8116

     13  H    Isotropic =    32.3878   Anisotropy =    14.2449

     14  H    Isotropic =    32.4312   Anisotropy =     9.5315

     15  H    Isotropic =    32.4350   Anisotropy =    13.3027

     16  H    Isotropic =    31.9842   Anisotropy =     9.1182

     17  H    Isotropic =    32.4106   Anisotropy =    13.6108

     18  H    Isotropic =    32.8868   Anisotropy =     9.5735

     19  H    Isotropic =    31.9041   Anisotropy =    10.6399

     20  H    Isotropic =    32.3947   Anisotropy =    10.3365

     21  H    Isotropic =    32.3134   Anisotropy =    14.8201

     22  H    Isotropic =    32.9447   Anisotropy =    12.6729

     23  H    Isotropic =    32.4504   Anisotropy =    10.9527

     24  H    Isotropic =    35.1149   Anisotropy =    18.7306

     25  H    Isotropic =    32.3631   Anisotropy =    12.1945

     26  H    Isotropic =    32.7584   Anisotropy =     9.3142

     27  H    Isotropic =    32.8217   Anisotropy =    10.0716

     28  H    Isotropic =    32.6041   Anisotropy =    14.7833

     29  H    Isotropic =    32.5410   Anisotropy =     9.7705

     30  H    Isotropic =    32.3976   Anisotropy =    12.7967

     31  H    Isotropic =    32.4495   Anisotropy =    14.7114

 The electronic state is 1-A.
 Alpha  occ. eigenvalues --  -20.23371 -11.08360 -11.04695 -11.04309 -11.04089
 Alpha  occ. eigenvalues --  -11.03650 -11.03243 -11.03150 -11.03064 -11.02942
 Alpha  occ. eigenvalues --  -11.02759  -1.27558  -1.07745  -1.03529  -0.96568
 Alpha  occ. eigenvalues --   -0.94652  -0.88998  -0.87799  -0.80203  -0.77938
 Alpha  occ. eigenvalues --   -0.72770  -0.67975  -0.62635  -0.61316  -0.59294
 Alpha  occ. eigenvalues --   -0.57582  -0.55151  -0.54265  -0.53042  -0.52385
 Alpha  occ. eigenvalues --   -0.51794  -0.50526  -0.49285  -0.48189  -0.46634
 Alpha  occ. eigenvalues --   -0.45388  -0.42950  -0.42766  -0.41965  -0.40654
 Alpha  occ. eigenvalues --   -0.39431  -0.38190  -0.36672  -0.32968
 Alpha virt. eigenvalues --    0.52368   0.56325   0.58111   0.60010   0.60642
 Alpha virt. eigenvalues --    0.60985   0.61683   0.65163   0.65693   0.66691
 Alpha virt. eigenvalues --    0.67508   0.69029   0.70592   0.71205   0.71953

 Mulliken atomic charges:
              1
     1  C   -0.172524
     2  C   -0.021501
     3  C    0.074896
     4  C   -0.101782
     5  C   -0.034634
     6  C   -0.100011
     7  C   -0.115751
     8  O   -0.314929
     9  C   -0.018505
    10  C   -0.176824
    11  C   -0.173417
    12  H    0.049361
    13  H    0.053475
    14  H    0.057531
    15  H    0.045591
    16  H    0.041193
    17  H    0.051763
    18  H    0.045769
    19  H    0.060440
    20  H    0.057199
    21  H    0.048948
    22  H    0.046397
    23  H    0.052660
    24  H    0.173361
    25  H    0.047976
    26  H    0.053549
    27  H    0.052538
    28  H    0.055150
    29  H    0.054281
    30  H    0.054108
    31  H    0.053695
 Sum of Mulliken atomic charges =   0.00000

 Dipole moment (field-independent basis, Debye):
    X=             -0.0191    Y=             -0.4557    Z=              1.1713  Tot=              1.2570
 Quadrupole moment (field-independent basis, Debye-Ang):
   XX=            -67.0998   YY=            -64.9277   ZZ=            -70.2340
   XY=              1.3314   XZ=             -0.8982   YZ=             -0.9672

 Summary of Natural Population Analysis:

                                       Natural Population
                Natural  -----------------------------------------------
    Atom  No    Charge         Core      Valence    Rydberg      Total
 -----------------------------------------------------------------------
      C    1   -0.12772      1.99998     4.12775    0.00000     6.12772
      C    2    0.01725      1.99997     3.98278    0.00000     5.98275
      C    3    0.14377      1.99989     3.85634    0.00000     5.85623
      C    4   -0.06455      1.99996     4.06459    0.00000     6.06455
      C    5   -0.01316      1.99995     4.01321    0.00000     6.01316
      C    6   -0.06338      1.99996     4.06342    0.00000     6.06338
      C    7   -0.09196      1.99996     4.09200    0.00000     6.09196
      O    8   -0.33649      1.99999     6.33649    0.00000     8.33649
      C    9    0.02232      1.99996     3.97772    0.00000     5.97768
      C   10   -0.13300      1.99997     4.13303    0.00000     6.13300
      C   11   -0.12943      1.99997     4.12946    0.00000     6.12943
      H   12    0.03234      0.00000     0.96766    0.00000     0.96766
      H   13    0.03628      0.00000     0.96372    0.00000     0.96372
      H   14    0.03960      0.00000     0.96040    0.00000     0.96040
      H   15    0.02121      0.00000     0.97879    0.00000     0.97879
      H   16    0.00539      0.00000     0.99461    0.00000     0.99461
      H   17    0.03102      0.00000     0.96898    0.00000     0.96898
      H   18    0.02473      0.00000     0.97527    0.00000     0.97527
      H   19    0.03439      0.00000     0.96561    0.00000     0.96561
      H   20    0.03557      0.00000     0.96443    0.00000     0.96443
      H   21    0.02857      0.00000     0.97143    0.00000     0.97143
      H   22    0.02671      0.00000     0.97329    0.00000     0.97329
      H   23    0.03248      0.00000     0.96752    0.00000     0.96752
      H   24    0.18576      0.00000     0.81424    0.00000     0.81424
      H   25    0.02259      0.00000     0.97741    0.00000     0.97741
      H   26    0.03627      0.00000     0.96373    0.00000     0.96373
      H   27    0.03531      0.00000     0.96469    0.00000     0.96469
      H   28    0.03823      0.00000     0.96177    0.00000     0.96177
      H   29    0.03672      0.00000     0.96328    0.00000     0.96328
      H   30    0.03669      0.00000     0.96331    0.00000     0.96331
      H   31    0.03650      0.00000     0.96350    0.00000     0.96350
 =======================================================================
   * Total *    0.00000     21.99954    66.00046    0.00000    88.00000

 Normal termination of Gaussian 09 at Tue Aug  3 16:33:41 2021.
