 Gaussian 09, Revision C.01,
 Gaussian 09:  EM64L-G09RevC.01 23-Sep-2011

 ------------------------
 # rhf/STO-3G nmr pop=nbo
 ------------------------

 99/9=1/99;
 -------
 comment
 -------
 Charge =  0 Multiplicity = 1

                         Standard orientation:
 ---------------------------------------------------------------------
 Center     Atomic      Atomic             Coordinates (Angstroms)
 Number     Number       Type             X           Y           Z
 ---------------------------------------------------------------------
      1          6           0       -2.665856    0.216581    1.224180
      2          6           0       -2.324080   -0.382277   -0.143136
      3          6           0       -0.186721    0.963689   -0.610421
      4          6           0       -0.037821   -1.550951   -0.404316
      5          6           0        0.576624   -0.215762    0.046158
      6          6           0       -1.510732   -1.678160   -0.001136
      7          6           0       -1.616193    0.625289   -1.054259
      8          8           0       -0.227961    2.047854    0.319776
      9          6           0        2.110399   -0.140149   -0.245210
     10          6           0        2.889133   -1.289789    0.408165
     11          6           0        2.726905    1.185161    0.223547
     12          1           0       -3.290193   -0.476435    1.798811
     13          1           0       -1.772699    0.425864    1.819706
     14          1           0       -3.226841    1.150155    1.110596
     15          1           0       -3.282984   -0.638675   -0.613396
     16          1           0        0.357453    1.324735   -1.491470
     17          1           0        0.492890   -2.404094    0.029429
     18          1           0        0.055138   -1.648721   -1.493663
     19          1           0        0.460037   -0.146816    1.137225
     20          1           0       -1.572096   -2.053989    1.027997
     21          1           0       -1.964506   -2.457468   -0.626871
     22          1           0       -2.219670    1.537574   -1.136048
     23          1           0       -1.570944    0.191070   -2.062065
     24          1           0       -0.645617    2.803589   -0.127218
     25          1           0        2.263628   -0.212847   -1.330104
     26          1           0        2.680598   -1.349806    1.481555
     27          1           0        2.642001   -2.252912   -0.047387
     28          1           0        3.968889   -1.153232    0.281408
     29          1           0        2.540200    1.352732    1.289633
     30          1           0        2.327116    2.036471   -0.334848
     31          1           0        3.811342    1.188178    0.067070
 ---------------------------------------------------------------------

 SCF Done:  E(RHF) =  -459.610866762     A.U. after   10 cycles

      1  C    Isotropic =   220.3782   Anisotropy =    25.9402

      2  C    Isotropic =   217.3413   Anisotropy =     3.7292

      3  C    Isotropic =   187.0211   Anisotropy =    33.9052

      4  C    Isotropic =   219.1171   Anisotropy =    14.1015

      5  C    Isotropic =   209.1003   Anisotropy =    15.6042

      6  C    Isotropic =   216.9783   Anisotropy =    17.0769

      7  C    Isotropic =   214.6447   Anisotropy =    11.8249

      8  O    Isotropic =   347.0995   Anisotropy =    98.1713

      9  C    Isotropic =   211.1812   Anisotropy =    18.3488

     10  C    Isotropic =   221.3296   Anisotropy =    25.5746

     11  C    Isotropic =   220.9862   Anisotropy =    24.3695

     12  H    Isotropic =    32.4633   Anisotropy =    14.4614

     13  H    Isotropic =    32.1977   Anisotropy =     7.1925

     14  H    Isotropic =    32.5751   Anisotropy =    13.5425

     15  H    Isotropic =    32.3716   Anisotropy =    15.3570

     16  H    Isotropic =    31.9836   Anisotropy =     8.5737

     17  H    Isotropic =    32.3438   Anisotropy =    12.7467

     18  H    Isotropic =    32.9096   Anisotropy =    11.4178

     19  H    Isotropic =    32.4588   Anisotropy =     6.9878

     20  H    Isotropic =    32.4994   Anisotropy =    12.1978

     21  H    Isotropic =    32.1360   Anisotropy =    15.1528

     22  H    Isotropic =    32.9323   Anisotropy =    13.1841

     23  H    Isotropic =    32.4167   Anisotropy =    12.5264

     24  H    Isotropic =    35.0777   Anisotropy =    19.0960

     25  H    Isotropic =    32.7637   Anisotropy =    10.1831

     26  H    Isotropic =    32.5768   Anisotropy =    10.9722

     27  H    Isotropic =    32.3662   Anisotropy =    11.3800

     28  H    Isotropic =    32.4959   Anisotropy =    14.2826

     29  H    Isotropic =    32.2948   Anisotropy =    10.5597

     30  H    Isotropic =    32.0986   Anisotropy =    10.1123

     31  H    Isotropic =    32.5227   Anisotropy =    14.4695

 The electronic state is 1-A.
 Alpha  occ. eigenvalues --  -20.23460 -11.08423 -11.04379 -11.04340 -11.04322
 Alpha  occ. eigenvalues --  -11.03781 -11.03539 -11.03284 -11.02723 -11.02465
 Alpha  occ. eigenvalues --  -11.02245  -1.27583  -1.07868  -1.03345  -0.96425
 Alpha  occ. eigenvalues --   -0.94477  -0.88413  -0.88003  -0.79515  -0.77932
 Alpha  occ. eigenvalues --   -0.73202  -0.68543  -0.62459  -0.60871  -0.59253
 Alpha  occ. eigenvalues --   -0.57156  -0.55250  -0.54443  -0.53540  -0.51674
 Alpha  occ. eigenvalues --   -0.50305  -0.50120  -0.49365  -0.48691  -0.45874
 Alpha  occ. eigenvalues --   -0.45063  -0.43307  -0.42609  -0.42060  -0.41096
 Alpha  occ. eigenvalues --   -0.38854  -0.38346  -0.36926  -0.32677
 Alpha virt. eigenvalues --    0.52678   0.55719   0.57531   0.59819   0.60664
 Alpha virt. eigenvalues --    0.61819   0.62482   0.64018   0.64477   0.67905
 Alpha virt. eigenvalues --    0.68535   0.69527   0.69733   0.72207   0.72337

 Mulliken atomic charges:
              1
     1  C   -0.173144
     2  C   -0.024113
     3  C    0.075729
     4  C   -0.102229
     5  C   -0.032658
     6  C   -0.101853
     7  C   -0.112393
     8  O   -0.313237
     9  C   -0.017353
    10  C   -0.173875
    11  C   -0.172236
    12  H    0.051029
    13  H    0.062114
    14  H    0.051166
    15  H    0.047147
    16  H    0.039362
    17  H    0.055213
    18  H    0.045273
    19  H    0.057213
    20  H    0.050449
    21  H    0.048572
    22  H    0.048267
    23  H    0.049461
    24  H    0.174151
    25  H    0.042704
    26  H    0.053114
    27  H    0.052957
    28  H    0.054142
    29  H    0.057794
    30  H    0.056608
    31  H    0.050629
 Sum of Mulliken atomic charges =   0.00000

 Dipole moment (field-independent basis, Debye):
    X=             -0.4853    Y=             -0.1090    Z=             -1.2549  Tot=              1.3499
 Quadrupole moment (field-independent basis, Debye-Ang):
   XX=            -67.6342   YY=            -66.3510   ZZ=            -67.4608
   XY=             -1.5140   XZ=              0.5213   YZ=             -2.8180

 Summary of Natural Population Analysis:

                                       Natural Population
                Natural  -----------------------------------------------
    Atom  No    Charge         Core      Valence    Rydberg      Total
 -----------------------------------------------------------------------
      C    1   -0.12838      1.99997     4.12841    0.00000     6.12838
      C    2    0.01372      1.99997     3.98631    0.00000     5.98628
      C    3    0.14451      1.99989     3.85560    0.00000     5.85549
      C    4   -0.06496      1.99996     4.06501    0.00000     6.06496
      C    5   -0.01044      1.99995     4.01049    0.00000     6.01044
      C    6   -0.06450      1.99996     4.06455    0.00000     6.06450
      C    7   -0.08888      1.99996     4.08891    0.00000     6.08888
      O    8   -0.33475      1.99999     6.33475    0.00000     8.33475
      C    9    0.02466      1.99996     3.97538    0.00000     5.97534
      C   10   -0.12986      1.99997     4.12989    0.00000     6.12986
      C   11   -0.12868      1.99997     4.12871    0.00000     6.12868
      H   12    0.03399      0.00000     0.96601    0.00000     0.96601
      H   13    0.04360      0.00000     0.95640    0.00000     0.95640
      H   14    0.03409      0.00000     0.96591    0.00000     0.96591
      H   15    0.02307      0.00000     0.97693    0.00000     0.97693
      H   16    0.00357      0.00000     0.99643    0.00000     0.99643
      H   17    0.03391      0.00000     0.96609    0.00000     0.96609
      H   18    0.02456      0.00000     0.97544    0.00000     0.97544
      H   19    0.03107      0.00000     0.96893    0.00000     0.96893
      H   20    0.02952      0.00000     0.97048    0.00000     0.97048
      H   21    0.02802      0.00000     0.97198    0.00000     0.97198
      H   22    0.02880      0.00000     0.97120    0.00000     0.97120
      H   23    0.02945      0.00000     0.97055    0.00000     0.97055
      H   24    0.18649      0.00000     0.81351    0.00000     0.81351
      H   25    0.01713      0.00000     0.98287    0.00000     0.98287
      H   26    0.03578      0.00000     0.96422    0.00000     0.96422
      H   27    0.03546      0.00000     0.96454    0.00000     0.96454
      H   28    0.03696      0.00000     0.96304    0.00000     0.96304
      H   29    0.03997      0.00000     0.96003    0.00000     0.96003
      H   30    0.03860      0.00000     0.96140    0.00000     0.96140
      H   31    0.03353      0.00000     0.96647    0.00000     0.96647
 =======================================================================
   * Total *    0.00000     21.99954    66.00046    0.00000    88.00000

 Normal termination of Gaussian 09 at Tue Aug  3 16:33:46 2021.
