 Gaussian 09, Revision C.01,
 Gaussian 09:  EM64L-G09RevC.01 23-Sep-2011

 ------------------------
 # rhf/STO-3G nmr pop=nbo
 ------------------------

 99/9=1/99;
 -------
 comment
 -------
 Charge =  0 Multiplicity = 1

                         Standard orientation:
 ---------------------------------------------------------------------
 Center     Atomic      Atomic             Coordinates (Angstroms)
 Number     Number       Type             X           Y           Z
 ---------------------------------------------------------------------
      1          6           0        3.159209   -0.171319    0.857460
      2          6           0        2.238860    0.180243   -0.313016
      3          6           0       -0.001925   -1.094207   -0.391069
      4          6           0        0.110870    1.445619   -0.854051
      5          6           0       -0.771923    0.175120   -0.831614
      6          6           0        1.328940    1.361073    0.055286
      7          6           0        1.464936   -1.050022   -0.826669
      8          8           0       -0.076675   -1.353394    1.003580
      9          6           0       -2.153108    0.420297   -0.155714
     10          6           0       -2.102466    0.895420    1.299089
     11          6           0       -3.071973   -0.799956   -0.274339
     12          1           0        2.594117   -0.539745    1.719286
     13          1           0        3.876369   -0.946635    0.567588
     14          1           0        3.730414    0.706623    1.177673
     15          1           0        2.892445    0.506728   -1.133963
     16          1           0       -0.469697   -1.960470   -0.874090
     17          1           0       -0.473928    2.341058   -0.614997
     18          1           0        0.468020    1.599452   -1.881890
     19          1           0       -1.010911    0.002971   -1.893694
     20          1           0        1.002788    1.298611    1.099461
     21          1           0        1.904131    2.292419   -0.020348
     22          1           0        1.973363   -1.971165   -0.516676
     23          1           0        1.491560   -1.036431   -1.924551
     24          1           0        0.326756   -0.614613    1.484337
     25          1           0       -2.635010    1.227929   -0.725398
     26          1           0       -1.778260    0.109234    1.985068
     27          1           0       -1.441639    1.757094    1.425127
     28          1           0       -3.101656    1.207241    1.624904
     29          1           0       -2.714361   -1.640257    0.328748
     30          1           0       -3.146340   -1.132486   -1.314999
     31          1           0       -4.083281   -0.554018    0.067604
 ---------------------------------------------------------------------

 SCF Done:  E(RHF) =  -459.605417259     A.U. after   10 cycles

      1  C    Isotropic =   219.9647   Anisotropy =    27.6471

      2  C    Isotropic =   216.9935   Anisotropy =     7.7346

      3  C    Isotropic =   189.3801   Anisotropy =    38.5939

      4  C    Isotropic =   217.9271   Anisotropy =    16.0705

      5  C    Isotropic =   212.2572   Anisotropy =    17.5092

      6  C    Isotropic =   218.2726   Anisotropy =    17.5264

      7  C    Isotropic =   216.5614   Anisotropy =    11.7340

      8  O    Isotropic =   360.8996   Anisotropy =    75.8413

      9  C    Isotropic =   211.7459   Anisotropy =    18.7120

     10  C    Isotropic =   223.7801   Anisotropy =    20.9292

     11  C    Isotropic =   221.6370   Anisotropy =    25.7448

     12  H    Isotropic =    32.9051   Anisotropy =     9.0956

     13  H    Isotropic =    32.4102   Anisotropy =    14.3309

     14  H    Isotropic =    32.5161   Anisotropy =    13.8795

     15  H    Isotropic =    32.4325   Anisotropy =    14.1667

     16  H    Isotropic =    31.2600   Anisotropy =    11.5228

     17  H    Isotropic =    32.5445   Anisotropy =    11.8551

     18  H    Isotropic =    32.4485   Anisotropy =    13.8026

     19  H    Isotropic =    32.3593   Anisotropy =    12.4341

     20  H    Isotropic =    33.5416   Anisotropy =     8.1843

     21  H    Isotropic =    32.4346   Anisotropy =    14.5287

     22  H    Isotropic =    32.2016   Anisotropy =    13.4495

     23  H    Isotropic =    32.3888   Anisotropy =    13.6468

     24  H    Isotropic =    35.4150   Anisotropy =    10.2252

     25  H    Isotropic =    32.4536   Anisotropy =    12.8046

     26  H    Isotropic =    32.5318   Anisotropy =     8.6885

     27  H    Isotropic =    32.7990   Anisotropy =     9.2979

     28  H    Isotropic =    32.5595   Anisotropy =    15.1071

     29  H    Isotropic =    32.0785   Anisotropy =     9.0799

     30  H    Isotropic =    32.4656   Anisotropy =    12.9992

     31  H    Isotropic =    32.4039   Anisotropy =    14.8377

 The electronic state is 1-A.
 Alpha  occ. eigenvalues --  -20.23580 -11.08623 -11.04937 -11.04685 -11.04244
 Alpha  occ. eigenvalues --  -11.04055 -11.03831 -11.03656 -11.03510 -11.02703
 Alpha  occ. eigenvalues --  -11.02526  -1.28010  -1.08034  -1.03705  -0.97067
 Alpha  occ. eigenvalues --   -0.95642  -0.88790  -0.88074  -0.80110  -0.78742
 Alpha  occ. eigenvalues --   -0.73180  -0.68846  -0.63135  -0.61022  -0.59768
 Alpha  occ. eigenvalues --   -0.56792  -0.55007  -0.54146  -0.53722  -0.53257
 Alpha  occ. eigenvalues --   -0.51262  -0.50477  -0.49485  -0.48481  -0.47512
 Alpha  occ. eigenvalues --   -0.45734  -0.43910  -0.43326  -0.42315  -0.41985
 Alpha  occ. eigenvalues --   -0.39448  -0.38697  -0.35957  -0.32439
 Alpha virt. eigenvalues --    0.52198   0.56777   0.57085   0.57972   0.60278
 Alpha virt. eigenvalues --    0.60679   0.61168   0.63726   0.64824   0.65671
 Alpha virt. eigenvalues --    0.67749   0.69348   0.71003   0.71215   0.71834

 Mulliken atomic charges:
              1
     1  C   -0.172081
     2  C   -0.029394
     3  C    0.076601
     4  C   -0.104565
     5  C   -0.045136
     6  C   -0.104766
     7  C   -0.115900
     8  O   -0.318162
     9  C   -0.015225
    10  C   -0.179920
    11  C   -0.174982
    12  H    0.050970
    13  H    0.055972
    14  H    0.054251
    15  H    0.049413
    16  H    0.059698
    17  H    0.053159
    18  H    0.047846
    19  H    0.046636
    20  H    0.041136
    21  H    0.053706
    22  H    0.060090
    23  H    0.050689
    24  H    0.180878
    25  H    0.046289
    26  H    0.062117
    27  H    0.050065
    28  H    0.053682
    29  H    0.063794
    30  H    0.050299
    31  H    0.052841
 Sum of Mulliken atomic charges =   0.00000

 Dipole moment (field-independent basis, Debye):
    X=              0.6282    Y=              1.2199    Z=             -0.7339  Tot=              1.5561
 Quadrupole moment (field-independent basis, Debye-Ang):
   XX=            -67.4293   YY=            -70.0141   ZZ=            -67.1720
   XY=             -0.5901   XZ=              0.4690   YZ=              2.1825

 Summary of Natural Population Analysis:

                                       Natural Population
                Natural  -----------------------------------------------
    Atom  No    Charge         Core      Valence    Rydberg      Total
 -----------------------------------------------------------------------
      C    1   -0.12695      1.99997     4.12698    0.00000     6.12695
      C    2    0.00936      1.99997     3.99067    0.00000     5.99064
      C    3    0.14312      1.99989     3.85698    0.00000     5.85688
      C    4   -0.06783      1.99996     4.06787    0.00000     6.06783
      C    5   -0.02498      1.99995     4.02503    0.00000     6.02498
      C    6   -0.06676      1.99996     4.06680    0.00000     6.06676
      C    7   -0.09289      1.99996     4.09293    0.00000     6.09289
      O    8   -0.33877      1.99999     6.33878    0.00000     8.33877
      C    9    0.02648      1.99996     3.97356    0.00000     5.97352
      C   10   -0.13655      1.99997     4.13658    0.00000     6.13655
      C   11   -0.13143      1.99997     4.13146    0.00000     6.13143
      H   12    0.03364      0.00000     0.96636    0.00000     0.96636
      H   13    0.03847      0.00000     0.96153    0.00000     0.96153
      H   14    0.03681      0.00000     0.96319    0.00000     0.96319
      H   15    0.02521      0.00000     0.97479    0.00000     0.97479
      H   16    0.02434      0.00000     0.97566    0.00000     0.97566
      H   17    0.03232      0.00000     0.96768    0.00000     0.96768
      H   18    0.02724      0.00000     0.97276    0.00000     0.97276
      H   19    0.02237      0.00000     0.97763    0.00000     0.97763
      H   20    0.02117      0.00000     0.97883    0.00000     0.97883
      H   21    0.03337      0.00000     0.96663    0.00000     0.96663
      H   22    0.03914      0.00000     0.96086    0.00000     0.96086
      H   23    0.03087      0.00000     0.96913    0.00000     0.96913
      H   24    0.19272      0.00000     0.80728    0.00000     0.80728
      H   25    0.02105      0.00000     0.97895    0.00000     0.97895
      H   26    0.04387      0.00000     0.95613    0.00000     0.95613
      H   27    0.03316      0.00000     0.96684    0.00000     0.96684
      H   28    0.03706      0.00000     0.96294    0.00000     0.96294
      H   29    0.04526      0.00000     0.95474    0.00000     0.95474
      H   30    0.03330      0.00000     0.96670    0.00000     0.96670
      H   31    0.03583      0.00000     0.96417    0.00000     0.96417
 =======================================================================
   * Total *    0.00000     21.99955    66.00045    0.00000    88.00000

 Normal termination of Gaussian 09 at Tue Aug  3 16:36:07 2021.
