 Gaussian 09, Revision C.01,
 Gaussian 09:  EM64L-G09RevC.01 23-Sep-2011

 ------------------------
 # rhf/STO-3G nmr pop=nbo
 ------------------------

 99/9=1/99;
 -------
 comment
 -------
 Charge =  0 Multiplicity = 1

                         Standard orientation:
 ---------------------------------------------------------------------
 Center     Atomic      Atomic             Coordinates (Angstroms)
 Number     Number       Type             X           Y           Z
 ---------------------------------------------------------------------
      1          6           0       -3.324802    0.124748    0.792418
      2          6           0       -2.146119    0.100757   -0.179358
      3          6           0        0.128530    1.091285   -0.699559
      4          6           0       -0.318433   -1.352518   -1.173223
      5          6           0        0.771896   -0.304408   -0.855803
      6          6           0       -1.544651   -1.304935   -0.265754
      7          6           0       -1.089078    1.130665    0.226470
      8          8           0        1.071593    2.082091   -0.317373
      9          6           0        1.780996   -0.798268    0.231300
     10          6           0        1.350275   -0.651336    1.689179
     11          6           0        3.168923   -0.162060    0.054085
     12          1           0       -4.098124   -0.585954    0.482432
     13          1           0       -3.009681   -0.139027    1.807741
     14          1           0       -3.779361    1.120444    0.826863
     15          1           0       -2.526614    0.372756   -1.173143
     16          1           0       -0.220403    1.393131   -1.696192
     17          1           0        0.103812   -2.364230   -1.167550
     18          1           0       -0.660324   -1.180188   -2.203301
     19          1           0        1.377293   -0.244483   -1.773519
     20          1           0       -1.289495   -1.673592    0.731985
     21          1           0       -2.298646   -1.999402   -0.657506
     22          1           0       -0.788929    0.981866    1.268953
     23          1           0       -1.522411    2.139273    0.200098
     24          1           0        1.179979    2.048383    0.646967
     25          1           0        1.932780   -1.872836    0.058186
     26          1           0        1.288548    0.394891    1.998669
     27          1           0        0.391232   -1.131360    1.885447
     28          1           0        2.082747   -1.132874    2.347823
     29          1           0        3.174421    0.901941    0.303430
     30          1           0        3.526344   -0.275903   -0.974625
     31          1           0        3.898866   -0.653140    0.707687
 ---------------------------------------------------------------------

 SCF Done:  E(RHF) =  -459.610852970     A.U. after   10 cycles

      1  C    Isotropic =   221.1034   Anisotropy =    28.1541

      2  C    Isotropic =   215.4422   Anisotropy =     7.1497

      3  C    Isotropic =   188.3780   Anisotropy =    40.7041

      4  C    Isotropic =   214.3896   Anisotropy =    18.3840

      5  C    Isotropic =   211.8836   Anisotropy =    14.6153

      6  C    Isotropic =   217.9389   Anisotropy =    15.9430

      7  C    Isotropic =   215.3715   Anisotropy =    23.7037

      8  O    Isotropic =   358.4125   Anisotropy =    81.8600

      9  C    Isotropic =   210.8642   Anisotropy =    21.3364

     10  C    Isotropic =   222.6403   Anisotropy =    18.0517

     11  C    Isotropic =   219.0754   Anisotropy =    29.9761

     12  H    Isotropic =    32.4529   Anisotropy =    14.0939

     13  H    Isotropic =    32.7589   Anisotropy =    10.7349

     14  H    Isotropic =    32.4642   Anisotropy =    13.9064

     15  H    Isotropic =    32.7590   Anisotropy =    12.3511

     16  H    Isotropic =    31.3835   Anisotropy =    11.1630

     17  H    Isotropic =    32.4545   Anisotropy =    13.2075

     18  H    Isotropic =    32.3841   Anisotropy =    13.8268

     19  H    Isotropic =    32.0870   Anisotropy =    12.8377

     20  H    Isotropic =    32.9547   Anisotropy =     9.2157

     21  H    Isotropic =    32.5428   Anisotropy =    14.6341

     22  H    Isotropic =    33.3313   Anisotropy =     7.7278

     23  H    Isotropic =    32.2612   Anisotropy =    13.3697

     24  H    Isotropic =    35.2725   Anisotropy =    12.4737

     25  H    Isotropic =    32.5286   Anisotropy =    11.7341

     26  H    Isotropic =    33.4076   Anisotropy =     8.3802

     27  H    Isotropic =    32.7622   Anisotropy =     9.7074

     28  H    Isotropic =    32.5623   Anisotropy =    14.6617

     29  H    Isotropic =    32.3225   Anisotropy =     9.0982

     30  H    Isotropic =    32.3160   Anisotropy =    13.1983

     31  H    Isotropic =    32.5034   Anisotropy =    14.5712

 The electronic state is 1-A.
 Alpha  occ. eigenvalues --  -20.23916 -11.08665 -11.04989 -11.04857 -11.03985
 Alpha  occ. eigenvalues --  -11.03820 -11.03751 -11.03696 -11.03670 -11.03379
 Alpha  occ. eigenvalues --  -11.02633  -1.28042  -1.08303  -1.03715  -0.97460
 Alpha  occ. eigenvalues --   -0.94963  -0.89586  -0.88002  -0.79573  -0.78322
 Alpha  occ. eigenvalues --   -0.74103  -0.70288  -0.62174  -0.60619  -0.58191
 Alpha  occ. eigenvalues --   -0.57979  -0.56541  -0.54396  -0.53834  -0.52525
 Alpha  occ. eigenvalues --   -0.51621  -0.50469  -0.49424  -0.47993  -0.47291
 Alpha  occ. eigenvalues --   -0.46772  -0.44217  -0.43195  -0.42799  -0.41701
 Alpha  occ. eigenvalues --   -0.39865  -0.38594  -0.35953  -0.32605
 Alpha virt. eigenvalues --    0.53357   0.54788   0.56840   0.58251   0.60158
 Alpha virt. eigenvalues --    0.61261   0.62288   0.64364   0.64473   0.65707
 Alpha virt. eigenvalues --    0.68532   0.69493   0.71016   0.71776   0.72093

 Mulliken atomic charges:
              1
     1  C   -0.171765
     2  C   -0.022620
     3  C    0.076828
     4  C   -0.101460
     5  C   -0.042950
     6  C   -0.102459
     7  C   -0.117116
     8  O   -0.312756
     9  C   -0.022402
    10  C   -0.177188
    11  C   -0.173326
    12  H    0.054640
    13  H    0.052710
    14  H    0.054487
    15  H    0.047884
    16  H    0.056522
    17  H    0.051130
    18  H    0.046816
    19  H    0.052010
    20  H    0.047727
    21  H    0.050793
    22  H    0.047027
    23  H    0.055408
    24  H    0.178943
    25  H    0.049303
    26  H    0.044664
    27  H    0.056430
    28  H    0.056832
    29  H    0.059030
    30  H    0.054468
    31  H    0.050391
 Sum of Mulliken atomic charges =   0.00000

 Dipole moment (field-independent basis, Debye):
    X=             -0.7177    Y=             -1.0284    Z=              0.8154  Tot=              1.4958
 Quadrupole moment (field-independent basis, Debye-Ang):
   XX=            -68.9540   YY=            -70.7125   ZZ=            -66.5882
   XY=             -2.2913   XZ=              2.1553   YZ=              2.3903

 Summary of Natural Population Analysis:

                                       Natural Population
                Natural  -----------------------------------------------
    Atom  No    Charge         Core      Valence    Rydberg      Total
 -----------------------------------------------------------------------
      C    1   -0.12697      1.99997     4.12700    0.00000     6.12697
      C    2    0.01635      1.99997     3.98368    0.00000     5.98365
      C    3    0.14268      1.99989     3.85743    0.00000     5.85732
      C    4   -0.06324      1.99996     4.06328    0.00000     6.06324
      C    5   -0.02273      1.99995     4.02278    0.00000     6.02273
      C    6   -0.06581      1.99996     4.06584    0.00000     6.06581
      C    7   -0.09364      1.99996     4.09368    0.00000     6.09364
      O    8   -0.33306      1.99999     6.33307    0.00000     8.33306
      C    9    0.01936      1.99996     3.98068    0.00000     5.98064
      C   10   -0.13309      1.99997     4.13313    0.00000     6.13309
      C   11   -0.12917      1.99997     4.12920    0.00000     6.12917
      H   12    0.03731      0.00000     0.96269    0.00000     0.96269
      H   13    0.03547      0.00000     0.96453    0.00000     0.96453
      H   14    0.03714      0.00000     0.96286    0.00000     0.96286
      H   15    0.02378      0.00000     0.97622    0.00000     0.97622
      H   16    0.02145      0.00000     0.97855    0.00000     0.97855
      H   17    0.03003      0.00000     0.96997    0.00000     0.96997
      H   18    0.02588      0.00000     0.97412    0.00000     0.97412
      H   19    0.02647      0.00000     0.97353    0.00000     0.97353
      H   20    0.02676      0.00000     0.97324    0.00000     0.97324
      H   21    0.03056      0.00000     0.96944    0.00000     0.96944
      H   22    0.02676      0.00000     0.97324    0.00000     0.97324
      H   23    0.03495      0.00000     0.96505    0.00000     0.96505
      H   24    0.19119      0.00000     0.80881    0.00000     0.80881
      H   25    0.02399      0.00000     0.97601    0.00000     0.97601
      H   26    0.02838      0.00000     0.97162    0.00000     0.97162
      H   27    0.03856      0.00000     0.96144    0.00000     0.96144
      H   28    0.04001      0.00000     0.95999    0.00000     0.95999
      H   29    0.04050      0.00000     0.95950    0.00000     0.95950
      H   30    0.03696      0.00000     0.96304    0.00000     0.96304
      H   31    0.03320      0.00000     0.96680    0.00000     0.96680
 =======================================================================
   * Total *    0.00000     21.99955    66.00045    0.00000    88.00000

 Normal termination of Gaussian 09 at Tue Aug  3 16:35:11 2021.
