 Gaussian 09, Revision C.01,
 Gaussian 09:  EM64L-G09RevC.01 23-Sep-2011

 ------------------------
 # rhf/STO-3G nmr pop=nbo
 ------------------------

 99/9=1/99;
 -------
 comment
 -------
 Charge =  0 Multiplicity = 1

                         Standard orientation:
 ---------------------------------------------------------------------
 Center     Atomic      Atomic             Coordinates (Angstroms)
 Number     Number       Type             X           Y           Z
 ---------------------------------------------------------------------
      1          6           0        3.207293   -0.184338    0.804222
      2          6           0        2.249686    0.191014   -0.328175
      3          6           0        0.015124   -1.075442   -0.355433
      4          6           0        0.112496    1.463965   -0.792784
      5          6           0       -0.759686    0.184288   -0.815489
      6          6           0        1.334600    1.344791    0.108828
      7          6           0        1.465312   -1.032110   -0.844978
      8          8           0        0.038286   -1.229746    1.056922
      9          6           0       -2.159728    0.417627   -0.175115
     10          6           0       -2.153053    0.873210    1.287248
     11          6           0       -3.076424   -0.798188   -0.342759
     12          1           0        3.920371   -0.946691    0.473010
     13          1           0        3.781698    0.689044    1.131008
     14          1           0        2.668497   -0.579047    1.671688
     15          1           0        2.870904    0.548280   -1.160952
     16          1           0       -0.462121   -1.970075   -0.773594
     17          1           0       -0.474804    2.345788   -0.513721
     18          1           0        0.462793    1.661958   -1.815298
     19          1           0       -0.966379    0.015963   -1.884630
     20          1           0        1.008835    1.212777    1.147755
     21          1           0        1.901070    2.283839    0.084938
     22          1           0        1.981676   -1.957063   -0.560158
     23          1           0        1.459338   -1.006107   -1.942664
     24          1           0       -0.781858   -1.680034    1.318359
     25          1           0       -2.624563    1.234194   -0.746499
     26          1           0       -3.162119    1.179478    1.586888
     27          1           0       -1.847567    0.080798    1.973903
     28          1           0       -1.497774    1.733931    1.445160
     29          1           0       -4.097288   -0.555371   -0.027983
     30          1           0       -2.740984   -1.650657    0.255033
     31          1           0       -3.119725   -1.111936   -1.391004
 ---------------------------------------------------------------------

 SCF Done:  E(RHF) =  -459.606860676     A.U. after   10 cycles

      1  C    Isotropic =   220.0382   Anisotropy =    27.7798

      2  C    Isotropic =   215.8663   Anisotropy =     8.0962

      3  C    Isotropic =   188.3611   Anisotropy =    39.0760

      4  C    Isotropic =   217.1803   Anisotropy =    17.1692

      5  C    Isotropic =   211.5148   Anisotropy =    16.6498

      6  C    Isotropic =   217.4993   Anisotropy =    16.3937

      7  C    Isotropic =   216.0778   Anisotropy =    13.3307

      8  O    Isotropic =   366.0206   Anisotropy =    84.4963

      9  C    Isotropic =   212.1294   Anisotropy =    18.2364

     10  C    Isotropic =   223.5759   Anisotropy =    21.0471

     11  C    Isotropic =   221.6809   Anisotropy =    25.3367

     12  H    Isotropic =    32.4306   Anisotropy =    14.1250

     13  H    Isotropic =    32.4198   Anisotropy =    14.1407

     14  H    Isotropic =    32.1236   Anisotropy =     9.3161

     15  H    Isotropic =    32.4099   Anisotropy =    14.1606

     16  H    Isotropic =    31.9013   Anisotropy =    10.2427

     17  H    Isotropic =    32.4217   Anisotropy =    11.7042

     18  H    Isotropic =    32.3639   Anisotropy =    13.7713

     19  H    Isotropic =    32.4904   Anisotropy =    11.9522

     20  H    Isotropic =    32.4134   Anisotropy =     7.9515

     21  H    Isotropic =    32.4044   Anisotropy =    14.8635

     22  H    Isotropic =    32.0743   Anisotropy =    12.9643

     23  H    Isotropic =    32.4040   Anisotropy =    13.2710

     24  H    Isotropic =    34.9026   Anisotropy =    17.5133

     25  H    Isotropic =    32.4066   Anisotropy =    12.7236

     26  H    Isotropic =    32.6297   Anisotropy =    14.9644

     27  H    Isotropic =    32.8087   Anisotropy =     8.8470

     28  H    Isotropic =    32.3419   Anisotropy =     9.8515

     29  H    Isotropic =    32.4576   Anisotropy =    14.5236

     30  H    Isotropic =    33.1621   Anisotropy =     9.3361

     31  H    Isotropic =    32.5413   Anisotropy =    12.7340

 The electronic state is 1-A.
 Alpha  occ. eigenvalues --  -20.23746 -11.08626 -11.04950 -11.03902 -11.03814
 Alpha  occ. eigenvalues --  -11.03683 -11.03405 -11.03056 -11.02876 -11.02695
 Alpha  occ. eigenvalues --  -11.02029  -1.28060  -1.07385  -1.03488  -0.96434
 Alpha  occ. eigenvalues --   -0.94943  -0.89180  -0.87317  -0.79266  -0.78272
 Alpha  occ. eigenvalues --   -0.72901  -0.66794  -0.64790  -0.60652  -0.59568
 Alpha  occ. eigenvalues --   -0.56447  -0.56094  -0.54054  -0.53995  -0.51402
 Alpha  occ. eigenvalues --   -0.50238  -0.50066  -0.48774  -0.47622  -0.46691
 Alpha  occ. eigenvalues --   -0.45437  -0.44405  -0.42609  -0.41832  -0.40795
 Alpha  occ. eigenvalues --   -0.39642  -0.38338  -0.35966  -0.32499
 Alpha virt. eigenvalues --    0.51786   0.56499   0.57338   0.59468   0.60452
 Alpha virt. eigenvalues --    0.61087   0.62225   0.65307   0.65473   0.66208
 Alpha virt. eigenvalues --    0.68079   0.68699   0.71194   0.71433   0.72228

 Mulliken atomic charges:
              1
     1  C   -0.171124
     2  C   -0.020310
     3  C    0.077999
     4  C   -0.101489
     5  C   -0.040593
     6  C   -0.100929
     7  C   -0.105513
     8  O   -0.316974
     9  C   -0.020344
    10  C   -0.176333
    11  C   -0.174232
    12  H    0.049438
    13  H    0.050345
    14  H    0.062946
    15  H    0.043713
    16  H    0.041177
    17  H    0.050545
    18  H    0.044619
    19  H    0.043786
    20  H    0.058419
    21  H    0.047615
    22  H    0.057902
    23  H    0.049533
    24  H    0.179286
    25  H    0.048965
    26  H    0.051961
    27  H    0.055823
    28  H    0.058598
    29  H    0.056642
    30  H    0.044011
    31  H    0.054519
 Sum of Mulliken atomic charges =   0.00000

 Dipole moment (field-independent basis, Debye):
    X=             -1.0615    Y=             -0.3207    Z=             -0.8705  Tot=              1.4098
 Quadrupole moment (field-independent basis, Debye-Ang):
   XX=            -67.1669   YY=            -66.2358   ZZ=            -68.1573
   XY=              1.4743   XZ=             -1.6995   YZ=              0.1514

 Summary of Natural Population Analysis:

                                       Natural Population
                Natural  -----------------------------------------------
    Atom  No    Charge         Core      Valence    Rydberg      Total
 -----------------------------------------------------------------------
      C    1   -0.12651      1.99997     4.12654    0.00000     6.12651
      C    2    0.01852      1.99996     3.98151    0.00000     5.98148
      C    3    0.14569      1.99989     3.85442    0.00000     5.85431
      C    4   -0.06405      1.99996     4.06410    0.00000     6.06405
      C    5   -0.02047      1.99995     4.02052    0.00000     6.02047
      C    6   -0.06461      1.99996     4.06464    0.00000     6.06461
      C    7   -0.08140      1.99995     4.08145    0.00000     6.08140
      O    8   -0.33830      1.99999     6.33831    0.00000     8.33830
      C    9    0.02074      1.99996     3.97930    0.00000     5.97926
      C   10   -0.13306      1.99997     4.13309    0.00000     6.13306
      C   11   -0.12965      1.99997     4.12968    0.00000     6.12965
      H   12    0.03242      0.00000     0.96758    0.00000     0.96758
      H   13    0.03327      0.00000     0.96673    0.00000     0.96673
      H   14    0.04448      0.00000     0.95552    0.00000     0.95552
      H   15    0.01932      0.00000     0.98068    0.00000     0.98068
      H   16    0.00645      0.00000     0.99355    0.00000     0.99355
      H   17    0.02975      0.00000     0.97025    0.00000     0.97025
      H   18    0.02398      0.00000     0.97602    0.00000     0.97602
      H   19    0.01931      0.00000     0.98069    0.00000     0.98069
      H   20    0.03661      0.00000     0.96339    0.00000     0.96339
      H   21    0.02743      0.00000     0.97257    0.00000     0.97257
      H   22    0.03675      0.00000     0.96325    0.00000     0.96325
      H   23    0.02938      0.00000     0.97062    0.00000     0.97062
      H   24    0.19207      0.00000     0.80793    0.00000     0.80793
      H   25    0.02389      0.00000     0.97611    0.00000     0.97611
      H   26    0.03517      0.00000     0.96483    0.00000     0.96483
      H   27    0.03805      0.00000     0.96195    0.00000     0.96195
      H   28    0.04099      0.00000     0.95901    0.00000     0.95901
      H   29    0.03927      0.00000     0.96073    0.00000     0.96073
      H   30    0.02737      0.00000     0.97263    0.00000     0.97263
      H   31    0.03711      0.00000     0.96289    0.00000     0.96289
 =======================================================================
   * Total *    0.00000     21.99954    66.00046    0.00000    88.00000

 Normal termination of Gaussian 09 at Tue Aug  3 16:35:53 2021.
