 Gaussian 09, Revision C.01,
 Gaussian 09:  EM64L-G09RevC.01 23-Sep-2011

 ------------------------
 # rhf/STO-3G nmr pop=nbo
 ------------------------

 99/9=1/99;
 -------
 comment
 -------
 Charge =  0 Multiplicity = 1

                         Standard orientation:
 ---------------------------------------------------------------------
 Center     Atomic      Atomic             Coordinates (Angstroms)
 Number     Number       Type             X           Y           Z
 ---------------------------------------------------------------------
      1          6           0        2.947214   -0.010644    0.950289
      2          6           0        2.343732    0.260550   -0.429114
      3          6           0        0.141128   -1.098692   -0.390813
      4          6           0        0.134599    1.370355    0.224170
      5          6           0       -0.683903    0.211966   -0.385972
      6          6           0        1.498913    1.535960   -0.443538
      7          6           0        1.544542   -0.927248   -0.981422
      8          8           0        0.231611   -1.679222    0.906953
      9          6           0       -2.068854    0.055056    0.318668
     10          6           0       -2.890575   -1.097679   -0.273338
     11          6           0       -2.909028    1.337113    0.240759
     12          1           0        3.522611   -0.942304    0.946231
     13          1           0        3.632416    0.798030    1.228108
     14          1           0        2.194851   -0.079835    1.738351
     15          1           0        3.194876    0.419686   -1.105286
     16          1           0       -0.371339   -1.840856   -1.013102
     17          1           0        0.259713    1.222931    1.302905
     18          1           0       -0.402033    2.317277    0.100633
     19          1           0       -0.871654    0.474234   -1.437499
     20          1           0        2.044348    2.357043    0.037040
     21          1           0        1.340457    1.840958   -1.486363
     22          1           0        2.121375   -1.850237   -0.844480
     23          1           0        1.436376   -0.780485   -2.064524
     24          1           0        0.319741   -0.969756    1.562680
     25          1           0       -1.906676   -0.163918    1.381869
     26          1           0       -3.016196   -0.978926   -1.354800
     27          1           0       -2.418525   -2.066414   -0.085289
     28          1           0       -3.887346   -1.140180    0.179491
     29          1           0       -3.022106    1.674403   -0.794979
     30          1           0       -2.459631    2.147748    0.821608
     31          1           0       -3.910739    1.173954    0.653653
 ---------------------------------------------------------------------

 SCF Done:  E(RHF) =  -459.615588548     A.U. after   10 cycles

      1  C    Isotropic =   221.9743   Anisotropy =    24.9631

      2  C    Isotropic =   217.4540   Anisotropy =     3.8162

      3  C    Isotropic =   190.9483   Anisotropy =    37.0182

      4  C    Isotropic =   221.4901   Anisotropy =    17.5093

      5  C    Isotropic =   209.1142   Anisotropy =    17.7946

      6  C    Isotropic =   217.4532   Anisotropy =    11.4240

      7  C    Isotropic =   215.7490   Anisotropy =    10.1654

      8  O    Isotropic =   363.7631   Anisotropy =    67.7216

      9  C    Isotropic =   213.6248   Anisotropy =    16.4959

     10  C    Isotropic =   221.5605   Anisotropy =    25.1894

     11  C    Isotropic =   221.3375   Anisotropy =    25.5562

     12  H    Isotropic =    32.4380   Anisotropy =    13.9265

     13  H    Isotropic =    32.6106   Anisotropy =    14.6312

     14  H    Isotropic =    33.0676   Anisotropy =     7.4941

     15  H    Isotropic =    32.4479   Anisotropy =    15.4820

     16  H    Isotropic =    31.3638   Anisotropy =    10.9609

     17  H    Isotropic =    33.3646   Anisotropy =     9.0323

     18  H    Isotropic =    32.5381   Anisotropy =    12.8065

     19  H    Isotropic =    32.8998   Anisotropy =     9.6098

     20  H    Isotropic =    32.5578   Anisotropy =    14.3295

     21  H    Isotropic =    32.6092   Anisotropy =    13.2492

     22  H    Isotropic =    32.0422   Anisotropy =    14.1263

     23  H    Isotropic =    32.5085   Anisotropy =    13.4891

     24  H    Isotropic =    35.1098   Anisotropy =    10.9597

     25  H    Isotropic =    32.7515   Anisotropy =     9.0486

     26  H    Isotropic =    32.6398   Anisotropy =    11.5825

     27  H    Isotropic =    31.9637   Anisotropy =    10.4964

     28  H    Isotropic =    32.4971   Anisotropy =    14.4688

     29  H    Isotropic =    32.6833   Anisotropy =    11.3428

     30  H    Isotropic =    32.4638   Anisotropy =    10.9840

     31  H    Isotropic =    32.5111   Anisotropy =    14.2715

 The electronic state is 1-A.
 Alpha  occ. eigenvalues --  -20.23473 -11.08399 -11.04990 -11.04736 -11.04669
 Alpha  occ. eigenvalues --  -11.04185 -11.03961 -11.03414 -11.03251 -11.03245
 Alpha  occ. eigenvalues --  -11.02823  -1.27783  -1.08143  -1.03952  -0.97010
 Alpha  occ. eigenvalues --   -0.95288  -0.88873  -0.88475  -0.79948  -0.78930
 Alpha  occ. eigenvalues --   -0.72975  -0.68848  -0.64568  -0.59681  -0.59083
 Alpha  occ. eigenvalues --   -0.57034  -0.55389  -0.55030  -0.54596  -0.52732
 Alpha  occ. eigenvalues --   -0.51166  -0.50318  -0.49809  -0.48777  -0.47772
 Alpha  occ. eigenvalues --   -0.45559  -0.43719  -0.43104  -0.42514  -0.41235
 Alpha  occ. eigenvalues --   -0.39855  -0.39371  -0.36124  -0.32647
 Alpha virt. eigenvalues --    0.52898   0.55385   0.57246   0.59086   0.59849
 Alpha virt. eigenvalues --    0.61469   0.62406   0.63796   0.65693   0.65908
 Alpha virt. eigenvalues --    0.67982   0.69443   0.70541   0.71353   0.71854

 Mulliken atomic charges:
              1
     1  C   -0.173626
     2  C   -0.026789
     3  C    0.073910
     4  C   -0.106757
     5  C   -0.042911
     6  C   -0.101013
     7  C   -0.111696
     8  O   -0.316462
     9  C   -0.019508
    10  C   -0.174710
    11  C   -0.173549
    12  H    0.058385
    13  H    0.053361
    14  H    0.047130
    15  H    0.049477
    16  H    0.057833
    17  H    0.040654
    18  H    0.056320
    19  H    0.047771
    20  H    0.051335
    21  H    0.048090
    22  H    0.059968
    23  H    0.048246
    24  H    0.178439
    25  H    0.046837
    26  H    0.050861
    27  H    0.062236
    28  H    0.054126
    29  H    0.052659
    30  H    0.053689
    31  H    0.055692
 Sum of Mulliken atomic charges =   0.00000

 Dipole moment (field-independent basis, Debye):
    X=              0.0342    Y=              1.5074    Z=             -0.3770  Tot=              1.5543
 Quadrupole moment (field-independent basis, Debye-Ang):
   XX=            -67.5832   YY=            -71.8655   ZZ=            -66.1583
   XY=              0.3027   XZ=             -0.1328   YZ=              1.9312

 Summary of Natural Population Analysis:

                                       Natural Population
                Natural  -----------------------------------------------
    Atom  No    Charge         Core      Valence    Rydberg      Total
 -----------------------------------------------------------------------
      C    1   -0.12862      1.99997     4.12865    0.00000     6.12862
      C    2    0.01077      1.99997     3.98926    0.00000     5.98923
      C    3    0.14027      1.99989     3.85984    0.00000     5.85973
      C    4   -0.06891      1.99995     4.06895    0.00000     6.06891
      C    5   -0.02024      1.99995     4.02029    0.00000     6.02024
      C    6   -0.06403      1.99996     4.06407    0.00000     6.06403
      C    7   -0.08906      1.99996     4.08910    0.00000     6.08906
      O    8   -0.33720      1.99999     6.33721    0.00000     8.33720
      C    9    0.02231      1.99996     3.97773    0.00000     5.97769
      C   10   -0.13098      1.99997     4.13102    0.00000     6.13098
      C   11   -0.12941      1.99997     4.12944    0.00000     6.12941
      H   12    0.04089      0.00000     0.95911    0.00000     0.95911
      H   13    0.03625      0.00000     0.96375    0.00000     0.96375
      H   14    0.03011      0.00000     0.96989    0.00000     0.96989
      H   15    0.02559      0.00000     0.97441    0.00000     0.97441
      H   16    0.02210      0.00000     0.97790    0.00000     0.97790
      H   17    0.02046      0.00000     0.97954    0.00000     0.97954
      H   18    0.03519      0.00000     0.96481    0.00000     0.96481
      H   19    0.02279      0.00000     0.97721    0.00000     0.97721
      H   20    0.03071      0.00000     0.96929    0.00000     0.96929
      H   21    0.02758      0.00000     0.97242    0.00000     0.97242
      H   22    0.03905      0.00000     0.96095    0.00000     0.96095
      H   23    0.02848      0.00000     0.97152    0.00000     0.97152
      H   24    0.19054      0.00000     0.80946    0.00000     0.80946
      H   25    0.02121      0.00000     0.97879    0.00000     0.97879
      H   26    0.03371      0.00000     0.96629    0.00000     0.96629
      H   27    0.04380      0.00000     0.95620    0.00000     0.95620
      H   28    0.03695      0.00000     0.96305    0.00000     0.96305
      H   29    0.03528      0.00000     0.96472    0.00000     0.96472
      H   30    0.03608      0.00000     0.96392    0.00000     0.96392
      H   31    0.03833      0.00000     0.96167    0.00000     0.96167
 =======================================================================
   * Total *    0.00000     21.99954    66.00046    0.00000    88.00000

 Normal termination of Gaussian 09 at Tue Aug  3 16:34:40 2021.
