 Gaussian 09, Revision C.01,
 Gaussian 09:  EM64L-G09RevC.01 23-Sep-2011

 ------------------------
 # rhf/STO-3G nmr pop=nbo
 ------------------------

 99/9=1/99;
 -------
 comment
 -------
 Charge =  0 Multiplicity = 1

                         Standard orientation:
 ---------------------------------------------------------------------
 Center     Atomic      Atomic             Coordinates (Angstroms)
 Number     Number       Type             X           Y           Z
 ---------------------------------------------------------------------
      1          6           0       -3.624254   -0.464015   -0.036111
      2          6           0       -2.119292   -0.511515   -0.294046
      3          6           0       -0.124939    1.104147   -0.543291
      4          6           0        0.150063   -1.086998    0.703950
      5          6           0        0.664813   -0.215360   -0.462232
      6          6           0       -1.355516   -0.938762    0.961587
      7          6           0       -1.612952    0.842940   -0.832369
      8          8           0       -0.022469    1.813461    0.690979
      9          6           0        2.210788   -0.030229   -0.476990
     10          6           0        2.931339   -1.382871   -0.541947
     11          6           0        2.787011    0.797068    0.674360
     12          1           0       -3.871252    0.260333    0.747442
     13          1           0       -4.164649   -0.179718   -0.945156
     14          1           0       -3.994598   -1.444356    0.281690
     15          1           0       -1.946216   -1.271887   -1.068052
     16          1           0        0.289581    1.750703   -1.325192
     17          1           0        0.679966   -0.867836    1.636818
     18          1           0        0.362694   -2.138556    0.473110
     19          1           0        0.434373   -0.762582   -1.389554
     20          1           0       -1.514619   -0.197794    1.755769
     21          1           0       -1.747551   -1.887382    1.348087
     22          1           0       -2.217082    1.662663   -0.423706
     23          1           0       -1.772181    0.848218   -1.918359
     24          1           0       -0.475368    2.666503    0.578658
     25          1           0        2.459203    0.502825   -1.405239
     26          1           0        2.816643   -1.947840    0.388803
     27          1           0        2.544943   -1.993268   -1.364859
     28          1           0        4.004007   -1.239972   -0.712793
     29          1           0        2.525041    0.383004    1.651929
     30          1           0        2.443526    1.834185    0.631749
     31          1           0        3.880923    0.828638    0.613563
 ---------------------------------------------------------------------

 SCF Done:  E(RHF) =  -459.612405740     A.U. after   10 cycles

      1  C    Isotropic =   221.1115   Anisotropy =    27.6183

      2  C    Isotropic =   216.5031   Anisotropy =     8.9156

      3  C    Isotropic =   187.4192   Anisotropy =    32.0399

      4  C    Isotropic =   220.2060   Anisotropy =    15.3502

      5  C    Isotropic =   211.2326   Anisotropy =    17.0677

      6  C    Isotropic =   217.2381   Anisotropy =    18.2383

      7  C    Isotropic =   212.1182   Anisotropy =    21.2499

      8  O    Isotropic =   349.2542   Anisotropy =    92.9918

      9  C    Isotropic =   212.7236   Anisotropy =    16.6837

     10  C    Isotropic =   220.9818   Anisotropy =    26.1514

     11  C    Isotropic =   223.9137   Anisotropy =    20.7569

     12  H    Isotropic =    32.6744   Anisotropy =    11.4690

     13  H    Isotropic =    32.4285   Anisotropy =    13.5818

     14  H    Isotropic =    32.4604   Anisotropy =    14.0276

     15  H    Isotropic =    32.6301   Anisotropy =    10.9212

     16  H    Isotropic =    31.9353   Anisotropy =    10.3009

     17  H    Isotropic =    32.1885   Anisotropy =    10.9620

     18  H    Isotropic =    32.4321   Anisotropy =    12.8188

     19  H    Isotropic =    32.5813   Anisotropy =     9.2819

     20  H    Isotropic =    32.2605   Anisotropy =    10.3392

     21  H    Isotropic =    32.4062   Anisotropy =    14.1336

     22  H    Isotropic =    32.9796   Anisotropy =    11.2028

     23  H    Isotropic =    32.1674   Anisotropy =    12.8806

     24  H    Isotropic =    35.1614   Anisotropy =    19.3862

     25  H    Isotropic =    32.4319   Anisotropy =    12.0658

     26  H    Isotropic =    32.4612   Anisotropy =     9.7557

     27  H    Isotropic =    32.5509   Anisotropy =    12.3941

     28  H    Isotropic =    32.4485   Anisotropy =    14.6968

     29  H    Isotropic =    32.4118   Anisotropy =     9.4764

     30  H    Isotropic =    32.0562   Anisotropy =    10.8660

     31  H    Isotropic =    32.6323   Anisotropy =    14.6559

 The electronic state is 1-A.
 Alpha  occ. eigenvalues --  -20.23503 -11.08493 -11.04383 -11.04311 -11.04276
 Alpha  occ. eigenvalues --  -11.03621 -11.03066 -11.02916 -11.02877 -11.02647
 Alpha  occ. eigenvalues --  -11.01945  -1.27743  -1.07534  -1.03289  -0.96247
 Alpha  occ. eigenvalues --   -0.94902  -0.88143  -0.87581  -0.79737  -0.77799
 Alpha  occ. eigenvalues --   -0.73378  -0.67007  -0.64238  -0.60200  -0.58233
 Alpha  occ. eigenvalues --   -0.57260  -0.56211  -0.53619  -0.52762  -0.52203
 Alpha  occ. eigenvalues --   -0.51318  -0.49801  -0.49359  -0.46929  -0.46617
 Alpha  occ. eigenvalues --   -0.45262  -0.43054  -0.42569  -0.42226  -0.40817
 Alpha  occ. eigenvalues --   -0.39044  -0.38669  -0.35873  -0.32802
 Alpha virt. eigenvalues --    0.52921   0.55741   0.57833   0.60003   0.61034
 Alpha virt. eigenvalues --    0.61975   0.62064   0.64962   0.66175   0.67116
 Alpha virt. eigenvalues --    0.67702   0.68764   0.71026   0.71741   0.72364

 Mulliken atomic charges:
              1
     1  C   -0.171450
     2  C   -0.022286
     3  C    0.076288
     4  C   -0.100286
     5  C   -0.029854
     6  C   -0.100426
     7  C   -0.112810
     8  O   -0.315053
     9  C   -0.017001
    10  C   -0.172954
    11  C   -0.174198
    12  H    0.053214
    13  H    0.052518
    14  H    0.054186
    15  H    0.044564
    16  H    0.039737
    17  H    0.056441
    18  H    0.046838
    19  H    0.046266
    20  H    0.054758
    21  H    0.048544
    22  H    0.047343
    23  H    0.049171
    24  H    0.175255
    25  H    0.043944
    26  H    0.054734
    27  H    0.050239
    28  H    0.053292
    29  H    0.056067
    30  H    0.063278
    31  H    0.049639
 Sum of Mulliken atomic charges =   0.00000

 Dipole moment (field-independent basis, Debye):
    X=             -0.6587    Y=              0.3913    Z=             -1.1181  Tot=              1.3555
 Quadrupole moment (field-independent basis, Debye-Ang):
   XX=            -68.2517   YY=            -64.5578   ZZ=            -68.1568
   XY=             -1.5740   XZ=             -0.4158   YZ=             -1.3817

 Summary of Natural Population Analysis:

                                       Natural Population
                Natural  -----------------------------------------------
    Atom  No    Charge         Core      Valence    Rydberg      Total
 -----------------------------------------------------------------------
      C    1   -0.12660      1.99997     4.12663    0.00000     6.12660
      C    2    0.01608      1.99997     3.98396    0.00000     5.98392
      C    3    0.14434      1.99989     3.85577    0.00000     5.85566
      C    4   -0.06286      1.99995     4.06291    0.00000     6.06286
      C    5   -0.00840      1.99995     4.00845    0.00000     6.00840
      C    6   -0.06367      1.99996     4.06371    0.00000     6.06367
      C    7   -0.08789      1.99996     4.08793    0.00000     6.08789
      O    8   -0.33636      1.99999     6.33637    0.00000     8.33636
      C    9    0.02414      1.99996     3.97590    0.00000     5.97586
      C   10   -0.12861      1.99997     4.12864    0.00000     6.12861
      C   11   -0.13129      1.99997     4.13133    0.00000     6.13129
      H   12    0.03589      0.00000     0.96411    0.00000     0.96411
      H   13    0.03533      0.00000     0.96467    0.00000     0.96467
      H   14    0.03689      0.00000     0.96311    0.00000     0.96311
      H   15    0.02038      0.00000     0.97962    0.00000     0.97962
      H   16    0.00416      0.00000     0.99584    0.00000     0.99584
      H   17    0.03448      0.00000     0.96552    0.00000     0.96552
      H   18    0.02583      0.00000     0.97417    0.00000     0.97417
      H   19    0.02156      0.00000     0.97844    0.00000     0.97844
      H   20    0.03319      0.00000     0.96681    0.00000     0.96681
      H   21    0.02806      0.00000     0.97194    0.00000     0.97194
      H   22    0.02726      0.00000     0.97274    0.00000     0.97274
      H   23    0.02872      0.00000     0.97128    0.00000     0.97128
      H   24    0.18781      0.00000     0.81219    0.00000     0.81219
      H   25    0.01884      0.00000     0.98116    0.00000     0.98116
      H   26    0.03707      0.00000     0.96293    0.00000     0.96293
      H   27    0.03302      0.00000     0.96698    0.00000     0.96698
      H   28    0.03607      0.00000     0.96393    0.00000     0.96393
      H   29    0.03862      0.00000     0.96138    0.00000     0.96138
      H   30    0.04496      0.00000     0.95504    0.00000     0.95504
      H   31    0.03300      0.00000     0.96700    0.00000     0.96700
 =======================================================================
   * Total *    0.00000     21.99954    66.00046    0.00000    88.00000

 Normal termination of Gaussian 09 at Tue Aug  3 16:35:31 2021.
