 Gaussian 09, Revision C.01,
 Gaussian 09:  EM64L-G09RevC.01 23-Sep-2011

 ------------------------
 # rhf/STO-3G nmr pop=nbo
 ------------------------

 99/9=1/99;
 -------
 comment
 -------
 Charge =  0 Multiplicity = 1

                         Standard orientation:
 ---------------------------------------------------------------------
 Center     Atomic      Atomic             Coordinates (Angstroms)
 Number     Number       Type             X           Y           Z
 ---------------------------------------------------------------------
      1          6           0        3.205687   -0.292573   -1.032487
      2          6           0        2.136614   -0.099013    0.041090
      3          6           0        0.073240    1.215404    0.694107
      4          6           0        0.184581   -1.200761    1.238257
      5          6           0       -0.775821   -0.076506    0.788071
      6          6           0        1.347246   -1.397897    0.263025
      7          6           0        1.217019    1.077837   -0.313541
      8          8           0       -0.721671    2.350767    0.389700
      9          6           0       -1.587062   -0.453294   -0.500453
     10          6           0       -2.593155    0.624972   -0.922666
     11          6           0       -2.357406   -1.771752   -0.322684
     12          1           0        3.889030   -1.103181   -0.758371
     13          1           0        2.757215   -0.540171   -2.000588
     14          1           0        3.799808    0.618776   -1.157619
     15          1           0        2.649116    0.146794    0.981193
     16          1           0        0.505645    1.410932    1.684367
     17          1           0       -0.344366   -2.146937    1.385797
     18          1           0        0.594474   -0.942301    2.224110
     19          1           0       -1.514113    0.075754    1.588005
     20          1           0        0.969832   -1.779647   -0.692912
     21          1           0        2.018486   -2.169556    0.659594
     22          1           0        0.813396    0.967328   -1.327656
     23          1           0        1.797895    2.008995   -0.335292
     24          1           0       -0.134851    3.125570    0.364271
     25          1           0       -0.898238   -0.595876   -1.340973
     26          1           0       -3.205991    0.952262   -0.076453
     27          1           0       -2.089404    1.494408   -1.353114
     28          1           0       -3.268621    0.252079   -1.700940
     29          1           0       -2.993591   -1.741461    0.568164
     30          1           0       -1.679440   -2.625706   -0.237227
     31          1           0       -2.998560   -1.972700   -1.188267
 ---------------------------------------------------------------------

 SCF Done:  E(RHF) =  -459.616670696     A.U. after   10 cycles

      1  C    Isotropic =   221.2175   Anisotropy =    27.8906

      2  C    Isotropic =   214.6652   Anisotropy =     7.9826

      3  C    Isotropic =   186.7234   Anisotropy =    40.3769

      4  C    Isotropic =   216.9379   Anisotropy =    14.4730

      5  C    Isotropic =   209.6001   Anisotropy =    13.9770

      6  C    Isotropic =   217.8754   Anisotropy =    18.4420

      7  C    Isotropic =   215.4407   Anisotropy =    23.7039

      8  O    Isotropic =   356.1041   Anisotropy =    95.4253

      9  C    Isotropic =   215.0379   Anisotropy =    13.4366

     10  C    Isotropic =   220.6554   Anisotropy =    25.8964

     11  C    Isotropic =   220.7246   Anisotropy =    26.6097

     12  H    Isotropic =    32.4447   Anisotropy =    14.0023

     13  H    Isotropic =    32.6687   Anisotropy =    10.9057

     14  H    Isotropic =    32.4942   Anisotropy =    13.8599

     15  H    Isotropic =    32.7990   Anisotropy =    12.0901

     16  H    Isotropic =    31.9707   Anisotropy =     9.8662

     17  H    Isotropic =    32.2646   Anisotropy =    12.7824

     18  H    Isotropic =    32.6633   Anisotropy =    13.3296

     19  H    Isotropic =    32.2218   Anisotropy =    12.0574

     20  H    Isotropic =    32.7702   Anisotropy =     8.8467

     21  H    Isotropic =    32.5362   Anisotropy =    14.5765

     22  H    Isotropic =    32.4778   Anisotropy =     7.8637

     23  H    Isotropic =    32.9137   Anisotropy =    13.1488

     24  H    Isotropic =    35.0815   Anisotropy =    19.4266

     25  H    Isotropic =    32.5989   Anisotropy =     8.2073

     26  H    Isotropic =    32.3470   Anisotropy =    11.4380

     27  H    Isotropic =    31.8028   Anisotropy =    10.0945

     28  H    Isotropic =    32.6231   Anisotropy =    14.2092

     29  H    Isotropic =    32.5456   Anisotropy =    12.0765

     30  H    Isotropic =    32.4027   Anisotropy =    10.5366

     31  H    Isotropic =    32.5303   Anisotropy =    14.1098

 The electronic state is 1-A.
 Alpha  occ. eigenvalues --  -20.23670 -11.08556 -11.04945 -11.04367 -11.04143
 Alpha  occ. eigenvalues --  -11.03765 -11.03717 -11.03643 -11.03349 -11.02566
 Alpha  occ. eigenvalues --  -11.01623  -1.27906  -1.08303  -1.03027  -0.96953
 Alpha  occ. eigenvalues --   -0.94841  -0.88046  -0.87726  -0.79252  -0.77487
 Alpha  occ. eigenvalues --   -0.74665  -0.68844  -0.62400  -0.60980  -0.58383
 Alpha  occ. eigenvalues --   -0.57905  -0.56294  -0.55290  -0.53035  -0.50675
 Alpha  occ. eigenvalues --   -0.50102  -0.49673  -0.49353  -0.47675  -0.47243
 Alpha  occ. eigenvalues --   -0.46243  -0.43956  -0.43374  -0.41950  -0.40679
 Alpha  occ. eigenvalues --   -0.39291  -0.38266  -0.36036  -0.33070
 Alpha virt. eigenvalues --    0.52797   0.55458   0.56612   0.60341   0.61689
 Alpha virt. eigenvalues --    0.62012   0.62909   0.63970   0.65974   0.66756
 Alpha virt. eigenvalues --    0.69504   0.70138   0.70951   0.72557   0.72926

 Mulliken atomic charges:
              1
     1  C   -0.171963
     2  C   -0.022817
     3  C    0.079492
     4  C   -0.102682
     5  C   -0.031543
     6  C   -0.101506
     7  C   -0.115671
     8  O   -0.313939
     9  C   -0.020288
    10  C   -0.172377
    11  C   -0.172970
    12  H    0.054502
    13  H    0.053734
    14  H    0.053493
    15  H    0.045744
    16  H    0.037508
    17  H    0.054966
    18  H    0.046990
    19  H    0.052270
    20  H    0.049525
    21  H    0.050595
    22  H    0.054717
    23  H    0.044001
    24  H    0.176944
    25  H    0.044576
    26  H    0.055441
    27  H    0.065782
    28  H    0.047937
    29  H    0.052353
    30  H    0.051289
    31  H    0.053898
 Sum of Mulliken atomic charges =   0.00000

 Dipole moment (field-independent basis, Debye):
    X=              1.4477    Y=             -0.0793    Z=              0.2005  Tot=              1.4637
 Quadrupole moment (field-independent basis, Debye-Ang):
   XX=            -69.4574   YY=            -66.3077   ZZ=            -67.0963
   XY=              3.5879   XZ=              0.7647   YZ=              0.2595

 Summary of Natural Population Analysis:

                                       Natural Population
                Natural  -----------------------------------------------
    Atom  No    Charge         Core      Valence    Rydberg      Total
 -----------------------------------------------------------------------
      C    1   -0.12752      1.99997     4.12754    0.00000     6.12752
      C    2    0.01660      1.99997     3.98343    0.00000     5.98340
      C    3    0.14619      1.99989     3.85392    0.00000     5.85381
      C    4   -0.06501      1.99995     4.06506    0.00000     6.06501
      C    5   -0.00761      1.99995     4.00766    0.00000     6.00761
      C    6   -0.06415      1.99996     4.06419    0.00000     6.06415
      C    7   -0.09225      1.99996     4.09228    0.00000     6.09225
      O    8   -0.33498      1.99999     6.33499    0.00000     8.33498
      C    9    0.02205      1.99995     3.97799    0.00000     5.97795
      C   10   -0.12934      1.99997     4.12937    0.00000     6.12934
      C   11   -0.12836      1.99997     4.12839    0.00000     6.12836
      H   12    0.03721      0.00000     0.96279    0.00000     0.96279
      H   13    0.03642      0.00000     0.96358    0.00000     0.96358
      H   14    0.03627      0.00000     0.96373    0.00000     0.96373
      H   15    0.02148      0.00000     0.97852    0.00000     0.97852
      H   16    0.00194      0.00000     0.99806    0.00000     0.99806
      H   17    0.03318      0.00000     0.96682    0.00000     0.96682
      H   18    0.02608      0.00000     0.97392    0.00000     0.97392
      H   19    0.02563      0.00000     0.97437    0.00000     0.97437
      H   20    0.02842      0.00000     0.97158    0.00000     0.97158
      H   21    0.02995      0.00000     0.97005    0.00000     0.97005
      H   22    0.03382      0.00000     0.96618    0.00000     0.96618
      H   23    0.02446      0.00000     0.97554    0.00000     0.97554
      H   24    0.18970      0.00000     0.81030    0.00000     0.81030
      H   25    0.01870      0.00000     0.98130    0.00000     0.98130
      H   26    0.03798      0.00000     0.96202    0.00000     0.96202
      H   27    0.04690      0.00000     0.95310    0.00000     0.95310
      H   28    0.03106      0.00000     0.96894    0.00000     0.96894
      H   29    0.03489      0.00000     0.96511    0.00000     0.96511
      H   30    0.03368      0.00000     0.96632    0.00000     0.96632
      H   31    0.03659      0.00000     0.96341    0.00000     0.96341
 =======================================================================
   * Total *    0.00000     21.99953    66.00047    0.00000    88.00000

 Normal termination of Gaussian 09 at Tue Aug  3 16:34:18 2021.
