 Gaussian 09, Revision C.01,
 Gaussian 09:  EM64L-G09RevC.01 23-Sep-2011

 ------------------------
 # rhf/STO-3G nmr pop=nbo
 ------------------------

 99/9=1/99;
 -------
 comment
 -------
 Charge =  0 Multiplicity = 1

                         Standard orientation:
 ---------------------------------------------------------------------
 Center     Atomic      Atomic             Coordinates (Angstroms)
 Number     Number       Type             X           Y           Z
 ---------------------------------------------------------------------
      1          6           0       -3.279027   -0.588990    0.687980
      2          6           0       -2.088362   -0.286076   -0.220260
      3          6           0       -0.148297    1.295850   -0.630073
      4          6           0        0.098629   -1.184276   -1.129820
      5          6           0        0.846883    0.122836   -0.800899
      6          6           0       -1.118534   -1.468927   -0.253392
      7          6           0       -1.371925    0.985893    0.233572
      8          8           0        0.516220    2.449329   -0.125207
      9          6           0        1.967055    0.017995    0.283588
     10          6           0        3.045030   -1.003859   -0.108261
     11          6           0        1.504828   -0.268929    1.709464
     12          1           0       -3.988937    0.244830    0.688379
     13          1           0       -3.811678   -1.482136    0.344764
     14          1           0       -2.958913   -0.761741    1.721159
     15          1           0       -2.473716   -0.124004   -1.235793
     16          1           0       -0.511847    1.561400   -1.632021
     17          1           0        0.769941   -2.047713   -1.111647
     18          1           0       -0.254130   -1.112309   -2.168302
     19          1           0        1.411708    0.371089   -1.714024
     20          1           0       -0.804060   -1.726767    0.762171
     21          1           0       -1.634863   -2.354109   -0.645582
     22          1           0       -1.092593    0.914175    1.289422
     23          1           0       -2.064088    1.837212    0.186209
     24          1           0       -0.135324    3.169636   -0.079739
     25          1           0        2.479351    0.989479    0.309309
     26          1           0        2.685190   -2.033460   -0.019710
     27          1           0        3.386214   -0.842719   -1.136064
     28          1           0        3.918271   -0.906919    0.546711
     29          1           0        1.016699   -1.242065    1.795134
     30          1           0        0.830829    0.505041    2.079987
     31          1           0        2.364506   -0.282655    2.389902
 ---------------------------------------------------------------------

 SCF Done:  E(RHF) =  -459.612649261     A.U. after   10 cycles

      1  C    Isotropic =   221.0534   Anisotropy =    28.2750

      2  C    Isotropic =   215.5159   Anisotropy =     7.1846

      3  C    Isotropic =   188.5052   Anisotropy =    38.9089

      4  C    Isotropic =   219.2594   Anisotropy =    14.1045

      5  C    Isotropic =   211.8206   Anisotropy =    15.5422

      6  C    Isotropic =   217.4146   Anisotropy =    16.0604

      7  C    Isotropic =   215.2787   Anisotropy =    22.0084

      8  O    Isotropic =   356.8292   Anisotropy =    91.2967

      9  C    Isotropic =   214.8520   Anisotropy =    14.6261

     10  C    Isotropic =   220.7517   Anisotropy =    27.6540

     11  C    Isotropic =   223.0395   Anisotropy =    19.0934

     12  H    Isotropic =    32.5201   Anisotropy =    13.8801

     13  H    Isotropic =    32.4678   Anisotropy =    13.9604

     14  H    Isotropic =    32.6866   Anisotropy =    10.9180

     15  H    Isotropic =    32.8928   Anisotropy =    11.9651

     16  H    Isotropic =    31.8935   Anisotropy =    10.7633

     17  H    Isotropic =    32.3242   Anisotropy =    12.5259

     18  H    Isotropic =    32.6319   Anisotropy =    13.9253

     19  H    Isotropic =    32.0099   Anisotropy =    12.7317

     20  H    Isotropic =    32.9046   Anisotropy =     9.2794

     21  H    Isotropic =    32.5731   Anisotropy =    14.3432

     22  H    Isotropic =    32.6064   Anisotropy =     8.3255

     23  H    Isotropic =    32.9022   Anisotropy =    13.1523

     24  H    Isotropic =    34.9834   Anisotropy =    19.4584

     25  H    Isotropic =    31.7536   Anisotropy =    11.8745

     26  H    Isotropic =    32.5305   Anisotropy =     9.8924

     27  H    Isotropic =    32.5135   Anisotropy =    13.0921

     28  H    Isotropic =    32.3645   Anisotropy =    14.6341

     29  H    Isotropic =    32.8716   Anisotropy =     8.5598

     30  H    Isotropic =    32.4364   Anisotropy =     9.4361

     31  H    Isotropic =    32.5274   Anisotropy =    14.8340

 The electronic state is 1-A.
 Alpha  occ. eigenvalues --  -20.23759 -11.08543 -11.04830 -11.04203 -11.03980
 Alpha  occ. eigenvalues --  -11.03648 -11.03612 -11.03528 -11.03263 -11.02533
 Alpha  occ. eigenvalues --  -11.02338  -1.27834  -1.08106  -1.03256  -0.96914
 Alpha  occ. eigenvalues --   -0.94836  -0.88837  -0.87874  -0.79912  -0.77534
 Alpha  occ. eigenvalues --   -0.73787  -0.68509  -0.61778  -0.60859  -0.59830
 Alpha  occ. eigenvalues --   -0.58242  -0.55846  -0.54936  -0.52656  -0.52057
 Alpha  occ. eigenvalues --   -0.50157  -0.49662  -0.49075  -0.48210  -0.46881
 Alpha  occ. eigenvalues --   -0.46489  -0.44094  -0.42722  -0.42099  -0.40824
 Alpha  occ. eigenvalues --   -0.39209  -0.38068  -0.36164  -0.33099
 Alpha virt. eigenvalues --    0.52707   0.56413   0.56858   0.59493   0.61256
 Alpha virt. eigenvalues --    0.62046   0.62417   0.63143   0.64691   0.67060
 Alpha virt. eigenvalues --    0.68877   0.70020   0.71059   0.71615   0.72963

 Mulliken atomic charges:
              1
     1  C   -0.171686
     2  C   -0.022561
     3  C    0.078323
     4  C   -0.103828
     5  C   -0.033675
     6  C   -0.101446
     7  C   -0.116392
     8  O   -0.313827
     9  C   -0.019275
    10  C   -0.172728
    11  C   -0.176872
    12  H    0.053048
    13  H    0.054203
    14  H    0.053940
    15  H    0.045799
    16  H    0.037380
    17  H    0.055824
    18  H    0.046926
    19  H    0.050063
    20  H    0.050620
    21  H    0.049690
    22  H    0.056078
    23  H    0.042965
    24  H    0.177695
    25  H    0.062096
    26  H    0.050653
    27  H    0.052045
    28  H    0.053808
    29  H    0.050415
    30  H    0.057702
    31  H    0.053017
 Sum of Mulliken atomic charges =   0.00000

 Dipole moment (field-independent basis, Debye):
    X=             -1.2629    Y=             -0.1017    Z=             -0.3762  Tot=              1.3217
 Quadrupole moment (field-independent basis, Debye-Ang):
   XX=            -68.5705   YY=            -66.5099   ZZ=            -67.3077
   XY=             -3.5323   XZ=              0.5736   YZ=             -0.3781

 Summary of Natural Population Analysis:

                                       Natural Population
                Natural  -----------------------------------------------
    Atom  No    Charge         Core      Valence    Rydberg      Total
 -----------------------------------------------------------------------
      C    1   -0.12674      1.99997     4.12677    0.00000     6.12674
      C    2    0.01618      1.99997     3.98385    0.00000     5.98382
      C    3    0.14627      1.99989     3.85384    0.00000     5.85373
      C    4   -0.06662      1.99995     4.06667    0.00000     6.06662
      C    5   -0.01102      1.99995     4.01108    0.00000     6.01102
      C    6   -0.06475      1.99996     4.06479    0.00000     6.06475
      C    7   -0.09369      1.99996     4.09373    0.00000     6.09369
      O    8   -0.33485      1.99999     6.33486    0.00000     8.33485
      C    9    0.02082      1.99996     3.97923    0.00000     5.97918
      C   10   -0.12784      1.99997     4.12788    0.00000     6.12784
      C   11   -0.13356      1.99997     4.13359    0.00000     6.13356
      H   12    0.03582      0.00000     0.96418    0.00000     0.96418
      H   13    0.03690      0.00000     0.96310    0.00000     0.96310
      H   14    0.03659      0.00000     0.96341    0.00000     0.96341
      H   15    0.02195      0.00000     0.97805    0.00000     0.97805
      H   16    0.00172      0.00000     0.99828    0.00000     0.99828
      H   17    0.03442      0.00000     0.96558    0.00000     0.96558
      H   18    0.02638      0.00000     0.97362    0.00000     0.97362
      H   19    0.02438      0.00000     0.97562    0.00000     0.97562
      H   20    0.02939      0.00000     0.97061    0.00000     0.97061
      H   21    0.02950      0.00000     0.97050    0.00000     0.97050
      H   22    0.03501      0.00000     0.96499    0.00000     0.96499
      H   23    0.02378      0.00000     0.97622    0.00000     0.97622
      H   24    0.19031      0.00000     0.80969    0.00000     0.80969
      H   25    0.03544      0.00000     0.96456    0.00000     0.96456
      H   26    0.03317      0.00000     0.96683    0.00000     0.96683
      H   27    0.03461      0.00000     0.96539    0.00000     0.96539
      H   28    0.03656      0.00000     0.96344    0.00000     0.96344
      H   29    0.03335      0.00000     0.96665    0.00000     0.96665
      H   30    0.03995      0.00000     0.96005    0.00000     0.96005
      H   31    0.03657      0.00000     0.96343    0.00000     0.96343
 =======================================================================
   * Total *    0.00000     21.99954    66.00046    0.00000    88.00000

 Normal termination of Gaussian 09 at Tue Aug  3 16:35:13 2021.
