 Gaussian 09, Revision C.01,
 Gaussian 09:  EM64L-G09RevC.01 23-Sep-2011

 ------------------------
 # rhf/STO-3G nmr pop=nbo
 ------------------------

 99/9=1/99;
 -------
 comment
 -------
 Charge =  0 Multiplicity = 1

                         Standard orientation:
 ---------------------------------------------------------------------
 Center     Atomic      Atomic             Coordinates (Angstroms)
 Number     Number       Type             X           Y           Z
 ---------------------------------------------------------------------
      1          6           0        3.185026   -0.179299    0.801903
      2          6           0        2.232983    0.212680   -0.329550
      3          6           0        0.005357   -1.060561   -0.382393
      4          6           0        0.089712    1.484695   -0.778322
      5          6           0       -0.776577    0.202330   -0.819427
      6          6           0        1.312364    1.356958    0.122008
      7          6           0        1.455306   -1.003762   -0.871134
      8          8           0       -0.002147   -1.229497    1.028680
      9          6           0       -2.171467    0.409693   -0.157667
     10          6           0       -2.149573    0.839334    1.312564
     11          6           0       -3.069126   -0.820634   -0.324420
     12          1           0        3.901596   -0.934643    0.462301
     13          1           0        3.755681    0.689794    1.146221
     14          1           0        2.642233   -0.589270    1.659726
     15          1           0        2.857888    0.585544   -1.152654
     16          1           0       -0.480361   -1.944530   -0.812107
     17          1           0       -0.502095    2.359429   -0.486697
     18          1           0        0.439742    1.698658   -1.797668
     19          1           0       -0.991571    0.051827   -1.889450
     20          1           0        0.986767    1.209107    1.158835
     21          1           0        1.875256    2.298406    0.111780
     22          1           0        1.976492   -1.931871   -0.606584
     23          1           0        1.448331   -0.955157   -1.968029
     24          1           0        0.482524   -2.047780    1.230861
     25          1           0       -2.656328    1.227059   -0.710527
     26          1           0       -3.157962    1.126723    1.632447
     27          1           0       -1.824422    0.035763    1.977965
     28          1           0       -1.502785    1.705097    1.477365
     29          1           0       -4.089369   -0.600055    0.008108
     30          1           0       -2.706528   -1.670824    0.261989
     31          1           0       -3.121939   -1.125894   -1.374686
 ---------------------------------------------------------------------

 SCF Done:  E(RHF) =  -459.608925748     A.U. after   10 cycles

      1  C    Isotropic =   220.0327   Anisotropy =    27.5802

      2  C    Isotropic =   216.0791   Anisotropy =     7.8322

      3  C    Isotropic =   188.9421   Anisotropy =    37.6528

      4  C    Isotropic =   217.3422   Anisotropy =    16.5443

      5  C    Isotropic =   210.8119   Anisotropy =    15.5884

      6  C    Isotropic =   217.4344   Anisotropy =    16.8253

      7  C    Isotropic =   214.8092   Anisotropy =    12.8899

      8  O    Isotropic =   358.1466   Anisotropy =    99.5402

      9  C    Isotropic =   211.6136   Anisotropy =    18.4138

     10  C    Isotropic =   223.4388   Anisotropy =    21.4356

     11  C    Isotropic =   221.4332   Anisotropy =    25.3554

     12  H    Isotropic =    32.5814   Anisotropy =    13.9370

     13  H    Isotropic =    32.3950   Anisotropy =    14.1035

     14  H    Isotropic =    32.5408   Anisotropy =     9.0663

     15  H    Isotropic =    32.4139   Anisotropy =    14.0768

     16  H    Isotropic =    31.8672   Anisotropy =    10.4378

     17  H    Isotropic =    32.3515   Anisotropy =    12.0228

     18  H    Isotropic =    32.3873   Anisotropy =    13.7592

     19  H    Isotropic =    32.3448   Anisotropy =    12.0403

     20  H    Isotropic =    32.3627   Anisotropy =     7.9689

     21  H    Isotropic =    32.3953   Anisotropy =    14.8509

     22  H    Isotropic =    32.9131   Anisotropy =    12.4718

     23  H    Isotropic =    32.3501   Anisotropy =    13.0890

     24  H    Isotropic =    35.3228   Anisotropy =    18.7711

     25  H    Isotropic =    32.4008   Anisotropy =    12.9406

     26  H    Isotropic =    32.5799   Anisotropy =    15.1454

     27  H    Isotropic =    32.0604   Anisotropy =     9.0673

     28  H    Isotropic =    32.4380   Anisotropy =     9.5106

     29  H    Isotropic =    32.3779   Anisotropy =    14.7395

     30  H    Isotropic =    32.2839   Anisotropy =     8.9976

     31  H    Isotropic =    32.5257   Anisotropy =    12.6827

 The electronic state is 1-A.
 Alpha  occ. eigenvalues --  -20.23754 -11.08664 -11.04316 -11.04198 -11.04155
 Alpha  occ. eigenvalues --  -11.03696 -11.03085 -11.02926 -11.02855 -11.02448
 Alpha  occ. eigenvalues --  -11.01686  -1.28091  -1.07422  -1.03092  -0.96388
 Alpha  occ. eigenvalues --   -0.95044  -0.88056  -0.87554  -0.79753  -0.78101
 Alpha  occ. eigenvalues --   -0.72631  -0.66829  -0.64126  -0.60836  -0.59124
 Alpha  occ. eigenvalues --   -0.56567  -0.55265  -0.53912  -0.53604  -0.52263
 Alpha  occ. eigenvalues --   -0.50569  -0.49781  -0.48879  -0.47596  -0.46685
 Alpha  occ. eigenvalues --   -0.45219  -0.43198  -0.42534  -0.41716  -0.40508
 Alpha  occ. eigenvalues --   -0.39025  -0.38571  -0.35935  -0.32896
 Alpha virt. eigenvalues --    0.52248   0.56370   0.58254   0.59573   0.60460
 Alpha virt. eigenvalues --    0.61206   0.61819   0.65260   0.65841   0.66684
 Alpha virt. eigenvalues --    0.68975   0.69804   0.71114   0.71914   0.72439

 Mulliken atomic charges:
              1
     1  C   -0.171693
     2  C   -0.021947
     3  C    0.077955
     4  C   -0.101277
     5  C   -0.032039
     6  C   -0.100927
     7  C   -0.115049
     8  O   -0.316872
     9  C   -0.013604
    10  C   -0.176724
    11  C   -0.173814
    12  H    0.049828
    13  H    0.053850
    14  H    0.055389
    15  H    0.045624
    16  H    0.040945
    17  H    0.052641
    18  H    0.044162
    19  H    0.046226
    20  H    0.059541
    21  H    0.048158
    22  H    0.046620
    23  H    0.051043
    24  H    0.177022
    25  H    0.044962
    26  H    0.048537
    27  H    0.069510
    28  H    0.052551
    29  H    0.053071
    30  H    0.057298
    31  H    0.049012
 Sum of Mulliken atomic charges =   0.00000

 Dipole moment (field-independent basis, Debye):
    X=              0.6175    Y=             -0.7456    Z=             -0.9056  Tot=              1.3257
 Quadrupole moment (field-independent basis, Debye-Ang):
   XX=            -67.9807   YY=            -64.5147   ZZ=            -68.2946
   XY=             -1.4145   XZ=              0.5453   YZ=             -0.4911

 Summary of Natural Population Analysis:

                                       Natural Population
                Natural  -----------------------------------------------
    Atom  No    Charge         Core      Valence    Rydberg      Total
 -----------------------------------------------------------------------
      C    1   -0.12675      1.99998     4.12677    0.00000     6.12675
      C    2    0.01692      1.99997     3.98311    0.00000     5.98308
      C    3    0.14586      1.99989     3.85425    0.00000     5.85414
      C    4   -0.06438      1.99996     4.06443    0.00000     6.06438
      C    5   -0.01009      1.99995     4.01014    0.00000     6.01009
      C    6   -0.06451      1.99996     4.06455    0.00000     6.06451
      C    7   -0.09115      1.99996     4.09119    0.00000     6.09115
      O    8   -0.33797      1.99999     6.33798    0.00000     8.33797
      C    9    0.02771      1.99996     3.97233    0.00000     5.97229
      C   10   -0.13382      1.99997     4.13385    0.00000     6.13382
      C   11   -0.12990      1.99997     4.12993    0.00000     6.12990
      H   12    0.03271      0.00000     0.96729    0.00000     0.96729
      H   13    0.03655      0.00000     0.96345    0.00000     0.96345
      H   14    0.03767      0.00000     0.96233    0.00000     0.96233
      H   15    0.02117      0.00000     0.97883    0.00000     0.97883
      H   16    0.00514      0.00000     0.99486    0.00000     0.99486
      H   17    0.03172      0.00000     0.96828    0.00000     0.96828
      H   18    0.02352      0.00000     0.97648    0.00000     0.97648
      H   19    0.02131      0.00000     0.97869    0.00000     0.97869
      H   20    0.03758      0.00000     0.96242    0.00000     0.96242
      H   21    0.02789      0.00000     0.97211    0.00000     0.97211
      H   22    0.02680      0.00000     0.97320    0.00000     0.97320
      H   23    0.03111      0.00000     0.96889    0.00000     0.96889
      H   24    0.18985      0.00000     0.81015    0.00000     0.81015
      H   25    0.01972      0.00000     0.98028    0.00000     0.98028
      H   26    0.03206      0.00000     0.96794    0.00000     0.96794
      H   27    0.05038      0.00000     0.94962    0.00000     0.94962
      H   28    0.03543      0.00000     0.96457    0.00000     0.96457
      H   29    0.03601      0.00000     0.96399    0.00000     0.96399
      H   30    0.03943      0.00000     0.96057    0.00000     0.96057
      H   31    0.03203      0.00000     0.96797    0.00000     0.96797
 =======================================================================
   * Total *    0.00000     21.99954    66.00046    0.00000    88.00000

 Normal termination of Gaussian 09 at Tue Aug  3 16:35:18 2021.
