 Gaussian 09, Revision C.01,
 Gaussian 09:  EM64L-G09RevC.01 23-Sep-2011

 ------------------------
 # rhf/STO-3G nmr pop=nbo
 ------------------------

 99/9=1/99;
 -------
 comment
 -------
 Charge =  0 Multiplicity = 1

                         Standard orientation:
 ---------------------------------------------------------------------
 Center     Atomic      Atomic             Coordinates (Angstroms)
 Number     Number       Type             X           Y           Z
 ---------------------------------------------------------------------
      1          6           0       -3.333459    0.102803    0.782106
      2          6           0       -2.149614    0.100204   -0.183643
      3          6           0        0.132649    1.106060   -0.661403
      4          6           0       -0.318713   -1.322714   -1.201848
      5          6           0        0.770837   -0.289188   -0.842745
      6          6           0       -1.541238   -1.301205   -0.289910
      7          6           0       -1.100026    1.129002    0.244076
      8          8           0        1.068154    2.064890   -0.188809
      9          6           0        1.749032   -0.810394    0.261196
     10          6           0        1.328441   -0.581202    1.711623
     11          6           0        3.169438   -0.255362    0.066701
     12          1           0       -3.792169    1.095967    0.831390
     13          1           0       -4.102310   -0.605430    0.455774
     14          1           0       -3.022582   -0.177402    1.794332
     15          1           0       -2.526099    0.386790   -1.174871
     16          1           0       -0.192586    1.454248   -1.651305
     17          1           0        0.102186   -2.334608   -1.229906
     18          1           0       -0.659388   -1.114355   -2.225532
     19          1           0        1.393234   -0.213037   -1.747377
     20          1           0       -1.277379   -1.682068    0.701441
     21          1           0       -2.291593   -1.994694   -0.689973
     22          1           0       -0.816497    0.978070    1.290684
     23          1           0       -1.537744    2.136039    0.219090
     24          1           0        1.768820    2.141054   -0.858718
     25          1           0        1.841062   -1.896851    0.126778
     26          1           0        1.317461    0.481468    1.970863
     27          1           0        0.346918   -1.006078    1.926264
     28          1           0        2.037408   -1.067478    2.391971
     29          1           0        3.227024    0.816389    0.273908
     30          1           0        3.524189   -0.428400   -0.954648
     31          1           0        3.870726   -0.756770    0.743380
 ---------------------------------------------------------------------

 SCF Done:  E(RHF) =  -459.612413047     A.U. after   10 cycles

      1  C    Isotropic =   221.0714   Anisotropy =    28.2428

      2  C    Isotropic =   215.2882   Anisotropy =     7.2808

      3  C    Isotropic =   187.5659   Anisotropy =    40.5422

      4  C    Isotropic =   214.1781   Anisotropy =    18.2669

      5  C    Isotropic =   211.0034   Anisotropy =    14.3441

      6  C    Isotropic =   217.9848   Anisotropy =    15.9349

      7  C    Isotropic =   217.3430   Anisotropy =    20.6624

      8  O    Isotropic =   360.6227   Anisotropy =    88.5719

      9  C    Isotropic =   210.5446   Anisotropy =    21.6435

     10  C    Isotropic =   222.5133   Anisotropy =    18.2706

     11  C    Isotropic =   218.8539   Anisotropy =    30.1199

     12  H    Isotropic =    32.3849   Anisotropy =    13.9308

     13  H    Isotropic =    32.4306   Anisotropy =    14.1180

     14  H    Isotropic =    32.6220   Anisotropy =    10.9185

     15  H    Isotropic =    32.8227   Anisotropy =    12.1123

     16  H    Isotropic =    31.9168   Anisotropy =    10.4872

     17  H    Isotropic =    32.4536   Anisotropy =    13.1776

     18  H    Isotropic =    32.5048   Anisotropy =    13.4879

     19  H    Isotropic =    32.7764   Anisotropy =    12.0482

     20  H    Isotropic =    32.8145   Anisotropy =     9.2731

     21  H    Isotropic =    32.5492   Anisotropy =    14.6331

     22  H    Isotropic =    32.4314   Anisotropy =     8.3003

     23  H    Isotropic =    32.0841   Anisotropy =    13.7217

     24  H    Isotropic =    34.9675   Anisotropy =    17.6299

     25  H    Isotropic =    32.5532   Anisotropy =    11.3676

     26  H    Isotropic =    32.2558   Anisotropy =     8.1679

     27  H    Isotropic =    32.6591   Anisotropy =     9.7858

     28  H    Isotropic =    32.5242   Anisotropy =    14.8375

     29  H    Isotropic =    32.4125   Anisotropy =     9.2312

     30  H    Isotropic =    32.6907   Anisotropy =    12.6646

     31  H    Isotropic =    32.4141   Anisotropy =    14.5855

 The electronic state is 1-A.
 Alpha  occ. eigenvalues --  -20.23975 -11.08640 -11.04698 -11.04610 -11.04155
 Alpha  occ. eigenvalues --  -11.03726 -11.03562 -11.03370 -11.03102 -11.02764
 Alpha  occ. eigenvalues --  -11.02533  -1.28061  -1.08134  -1.03360  -0.97224
 Alpha  occ. eigenvalues --   -0.94753  -0.89029  -0.87825  -0.78954  -0.78023
 Alpha  occ. eigenvalues --   -0.74051  -0.69604  -0.61738  -0.61057  -0.58892
 Alpha  occ. eigenvalues --   -0.57481  -0.56247  -0.54109  -0.53700  -0.52725
 Alpha  occ. eigenvalues --   -0.51016  -0.49784  -0.48999  -0.47804  -0.46889
 Alpha  occ. eigenvalues --   -0.46588  -0.43051  -0.42479  -0.42326  -0.41420
 Alpha  occ. eigenvalues --   -0.39714  -0.38104  -0.36809  -0.32890
 Alpha virt. eigenvalues --    0.52208   0.55465   0.57799   0.58997   0.60737
 Alpha virt. eigenvalues --    0.62349   0.63103   0.63688   0.64864   0.65929
 Alpha virt. eigenvalues --    0.69764   0.70090   0.70787   0.71829   0.72509

 Mulliken atomic charges:
              1
     1  C   -0.171424
     2  C   -0.022845
     3  C    0.078656
     4  C   -0.099974
     5  C   -0.044200
     6  C   -0.101958
     7  C   -0.108437
     8  O   -0.312753
     9  C   -0.018281
    10  C   -0.177692
    11  C   -0.174682
    12  H    0.054673
    13  H    0.053805
    14  H    0.053838
    15  H    0.045916
    16  H    0.037980
    17  H    0.051137
    18  H    0.045386
    19  H    0.040912
    20  H    0.049454
    21  H    0.050121
    22  H    0.059937
    23  H    0.056252
    24  H    0.178095
    25  H    0.047381
    26  H    0.065038
    27  H    0.052500
    28  H    0.052488
    29  H    0.057503
    30  H    0.048008
    31  H    0.053167
 Sum of Mulliken atomic charges =   0.00000

 Dipole moment (field-independent basis, Debye):
    X=              0.0173    Y=             -0.7643    Z=             -1.1565  Tot=              1.3863
 Quadrupole moment (field-independent basis, Debye-Ang):
   XX=            -66.7152   YY=            -69.9782   ZZ=            -66.3260
   XY=             -0.1944   XZ=             -1.2982   YZ=             -2.4030

 Summary of Natural Population Analysis:

                                       Natural Population
                Natural  -----------------------------------------------
    Atom  No    Charge         Core      Valence    Rydberg      Total
 -----------------------------------------------------------------------
      C    1   -0.12659      1.99997     4.12662    0.00000     6.12659
      C    2    0.01616      1.99997     3.98387    0.00000     5.98384
      C    3    0.14634      1.99989     3.85377    0.00000     5.85366
      C    4   -0.06170      1.99996     4.06174    0.00000     6.06170
      C    5   -0.02304      1.99995     4.02309    0.00000     6.02304
      C    6   -0.06552      1.99996     4.06556    0.00000     6.06552
      C    7   -0.08585      1.99996     4.08590    0.00000     6.08585
      O    8   -0.33355      1.99999     6.33356    0.00000     8.33355
      C    9    0.02380      1.99996     3.97624    0.00000     5.97620
      C   10   -0.13470      1.99997     4.13473    0.00000     6.13470
      C   11   -0.12999      1.99997     4.13002    0.00000     6.12999
      H   12    0.03731      0.00000     0.96269    0.00000     0.96269
      H   13    0.03654      0.00000     0.96346    0.00000     0.96346
      H   14    0.03649      0.00000     0.96351    0.00000     0.96351
      H   15    0.02191      0.00000     0.97809    0.00000     0.97809
      H   16    0.00280      0.00000     0.99720    0.00000     0.99720
      H   17    0.03002      0.00000     0.96998    0.00000     0.96998
      H   18    0.02454      0.00000     0.97546    0.00000     0.97546
      H   19    0.01618      0.00000     0.98382    0.00000     0.98382
      H   20    0.02846      0.00000     0.97154    0.00000     0.97154
      H   21    0.02993      0.00000     0.97007    0.00000     0.97007
      H   22    0.03828      0.00000     0.96172    0.00000     0.96172
      H   23    0.03568      0.00000     0.96432    0.00000     0.96432
      H   24    0.19073      0.00000     0.80927    0.00000     0.80927
      H   25    0.02183      0.00000     0.97817    0.00000     0.97817
      H   26    0.04684      0.00000     0.95316    0.00000     0.95316
      H   27    0.03516      0.00000     0.96484    0.00000     0.96484
      H   28    0.03599      0.00000     0.96401    0.00000     0.96401
      H   29    0.03915      0.00000     0.96085    0.00000     0.96085
      H   30    0.03088      0.00000     0.96912    0.00000     0.96912
      H   31    0.03592      0.00000     0.96408    0.00000     0.96408
 =======================================================================
   * Total *    0.00000     21.99954    66.00046    0.00000    88.00000

 Normal termination of Gaussian 09 at Tue Aug  3 16:34:29 2021.
