 Gaussian 09, Revision C.01,
 Gaussian 09:  EM64L-G09RevC.01 23-Sep-2011

 ------------------------
 # rhf/STO-3G nmr pop=nbo
 ------------------------

 99/9=1/99;
 -------
 comment
 -------
 Charge =  0 Multiplicity = 1

                         Standard orientation:
 ---------------------------------------------------------------------
 Center     Atomic      Atomic             Coordinates (Angstroms)
 Number     Number       Type             X           Y           Z
 ---------------------------------------------------------------------
      1          6           0       -2.818585    0.186784    1.039223
      2          6           0       -2.294331   -0.529425   -0.208123
      3          6           0       -0.266327    0.933704   -0.866082
      4          6           0        0.061569   -1.138604    0.570366
      5          6           0        0.678838   -0.238121   -0.514633
      6          6           0       -1.316098   -1.653711    0.153194
      7          6           0       -1.671541    0.437306   -1.229714
      8          8           0       -0.373814    1.872445    0.195033
      9          6           0        2.129121    0.225789   -0.183157
     10          6           0        3.139191   -0.870801   -0.551528
     11          6           0        2.367594    0.637819    1.273559
     12          1           0       -3.512426    0.987715    0.762948
     13          1           0       -3.363926   -0.515570    1.679231
     14          1           0       -2.019599    0.624609    1.642744
     15          1           0       -3.168634   -0.990904   -0.686784
     16          1           0        0.132402    1.475248   -1.733043
     17          1           0       -0.029065   -0.597877    1.518780
     18          1           0        0.712867   -1.999813    0.758412
     19          1           0        0.740634   -0.843609   -1.431446
     20          1           0       -1.732867   -2.276599    0.953635
     21          1           0       -1.195584   -2.310370   -0.718304
     22          1           0       -2.341993    1.293385   -1.374982
     23          1           0       -1.609720   -0.084009   -2.194166
     24          1           0        0.424124    2.427086    0.176721
     25          1           0        2.360869    1.091568   -0.817500
     26          1           0        2.987814   -1.776334    0.044734
     27          1           0        3.053238   -1.141173   -1.609307
     28          1           0        4.164944   -0.524962   -0.383271
     29          1           0        2.294653   -0.217767    1.953264
     30          1           0        1.662017    1.399363    1.611551
     31          1           0        3.374179    1.056005    1.387885
 ---------------------------------------------------------------------

 SCF Done:  E(RHF) =  -459.617297174     A.U. after   10 cycles

      1  C    Isotropic =   222.1174   Anisotropy =    24.9527

      2  C    Isotropic =   216.3560   Anisotropy =     3.7825

      3  C    Isotropic =   186.9413   Anisotropy =    31.3695

      4  C    Isotropic =   221.3214   Anisotropy =    13.7231

      5  C    Isotropic =   209.4788   Anisotropy =    16.6599

      6  C    Isotropic =   216.6471   Anisotropy =    11.1391

      7  C    Isotropic =   215.4017   Anisotropy =    10.7569

      8  O    Isotropic =   367.7837   Anisotropy =    85.1632

      9  C    Isotropic =   213.1317   Anisotropy =    16.8242

     10  C    Isotropic =   220.1593   Anisotropy =    28.5517

     11  C    Isotropic =   222.8455   Anisotropy =    21.5833

     12  H    Isotropic =    32.4458   Anisotropy =    13.8461

     13  H    Isotropic =    32.6054   Anisotropy =    14.6978

     14  H    Isotropic =    32.0410   Anisotropy =     7.3929

     15  H    Isotropic =    32.4042   Anisotropy =    15.4741

     16  H    Isotropic =    32.0123   Anisotropy =    10.8637

     17  H    Isotropic =    32.4316   Anisotropy =     8.1324

     18  H    Isotropic =    32.6364   Anisotropy =    12.6994

     19  H    Isotropic =    32.8990   Anisotropy =     9.7326

     20  H    Isotropic =    32.4106   Anisotropy =    14.4266

     21  H    Isotropic =    32.5977   Anisotropy =    13.2415

     22  H    Isotropic =    31.9910   Anisotropy =    13.8311

     23  H    Isotropic =    32.4714   Anisotropy =    13.3545

     24  H    Isotropic =    34.7625   Anisotropy =    17.6309

     25  H    Isotropic =    32.8806   Anisotropy =    11.2538

     26  H    Isotropic =    32.4480   Anisotropy =    10.1184

     27  H    Isotropic =    32.5646   Anisotropy =    12.8232

     28  H    Isotropic =    32.4869   Anisotropy =    14.3598

     29  H    Isotropic =    32.6094   Anisotropy =     9.9713

     30  H    Isotropic =    32.6580   Anisotropy =     9.8035

     31  H    Isotropic =    32.6450   Anisotropy =    14.6519

 The electronic state is 1-A.
 Alpha  occ. eigenvalues --  -20.23771 -11.08527 -11.05022 -11.04059 -11.04007
 Alpha  occ. eigenvalues --  -11.03542 -11.03229 -11.03213 -11.03180 -11.03155
 Alpha  occ. eigenvalues --  -11.01853  -1.28052  -1.07671  -1.03624  -0.96158
 Alpha  occ. eigenvalues --   -0.95045  -0.89057  -0.87524  -0.80275  -0.77686
 Alpha  occ. eigenvalues --   -0.72561  -0.67869  -0.63569  -0.61089  -0.58579
 Alpha  occ. eigenvalues --   -0.57366  -0.56632  -0.54427  -0.53656  -0.51767
 Alpha  occ. eigenvalues --   -0.50586  -0.49601  -0.49454  -0.47607  -0.46342
 Alpha  occ. eigenvalues --   -0.45132  -0.43704  -0.43604  -0.41968  -0.40727
 Alpha  occ. eigenvalues --   -0.39349  -0.39254  -0.36071  -0.32605
 Alpha virt. eigenvalues --    0.52777   0.55596   0.58202   0.60019   0.61186
 Alpha virt. eigenvalues --    0.61751   0.62236   0.65034   0.66440   0.66999
 Alpha virt. eigenvalues --    0.68144   0.68952   0.70793   0.71558   0.72056

 Mulliken atomic charges:
              1
     1  C   -0.174741
     2  C   -0.021664
     3  C    0.078512
     4  C   -0.102339
     5  C   -0.039621
     6  C   -0.099369
     7  C   -0.104797
     8  O   -0.316602
     9  C   -0.023094
    10  C   -0.171228
    11  C   -0.177165
    12  H    0.053167
    13  H    0.048525
    14  H    0.065838
    15  H    0.046445
    16  H    0.038352
    17  H    0.056509
    18  H    0.048503
    19  H    0.045217
    20  H    0.050244
    21  H    0.044144
    22  H    0.058896
    23  H    0.049265
    24  H    0.179075
    25  H    0.040785
    26  H    0.054020
    27  H    0.052025
    28  H    0.053417
    29  H    0.057345
    30  H    0.057100
    31  H    0.053238
 Sum of Mulliken atomic charges =   0.00000

 Dipole moment (field-independent basis, Debye):
    X=              1.0618    Y=             -0.1369    Z=             -0.8532  Tot=              1.3690
 Quadrupole moment (field-independent basis, Debye-Ang):
   XX=            -67.9553   YY=            -67.1029   ZZ=            -67.3765
   XY=              2.8265   XZ=              0.7505   YZ=             -1.2941

 Summary of Natural Population Analysis:

                                       Natural Population
                Natural  -----------------------------------------------
    Atom  No    Charge         Core      Valence    Rydberg      Total
 -----------------------------------------------------------------------
      C    1   -0.13071      1.99997     4.13074    0.00000     6.13071
      C    2    0.01677      1.99997     3.98327    0.00000     5.98323
      C    3    0.14601      1.99989     3.85410    0.00000     5.85399
      C    4   -0.06544      1.99996     4.06548    0.00000     6.06544
      C    5   -0.01994      1.99995     4.01998    0.00000     6.01994
      C    6   -0.06167      1.99996     4.06170    0.00000     6.06167
      C    7   -0.08026      1.99995     4.08030    0.00000     6.08026
      O    8   -0.33792      1.99999     6.33792    0.00000     8.33792
      C    9    0.01901      1.99996     3.98103    0.00000     5.98099
      C   10   -0.12646      1.99997     4.12649    0.00000     6.12646
      C   11   -0.13333      1.99997     4.13337    0.00000     6.13333
      H   12    0.03618      0.00000     0.96382    0.00000     0.96382
      H   13    0.03177      0.00000     0.96823    0.00000     0.96823
      H   14    0.04703      0.00000     0.95297    0.00000     0.95297
      H   15    0.02219      0.00000     0.97781    0.00000     0.97781
      H   16    0.00353      0.00000     0.99647    0.00000     0.99647
      H   17    0.03476      0.00000     0.96524    0.00000     0.96524
      H   18    0.02795      0.00000     0.97205    0.00000     0.97205
      H   19    0.02072      0.00000     0.97928    0.00000     0.97928
      H   20    0.02954      0.00000     0.97046    0.00000     0.97046
      H   21    0.02358      0.00000     0.97642    0.00000     0.97642
      H   22    0.03757      0.00000     0.96243    0.00000     0.96243
      H   23    0.02902      0.00000     0.97098    0.00000     0.97098
      H   24    0.19183      0.00000     0.80817    0.00000     0.80817
      H   25    0.01607      0.00000     0.98393    0.00000     0.98393
      H   26    0.03627      0.00000     0.96373    0.00000     0.96373
      H   27    0.03450      0.00000     0.96550    0.00000     0.96550
      H   28    0.03590      0.00000     0.96410    0.00000     0.96410
      H   29    0.04000      0.00000     0.96000    0.00000     0.96000
      H   30    0.03917      0.00000     0.96083    0.00000     0.96083
      H   31    0.03632      0.00000     0.96368    0.00000     0.96368
 =======================================================================
   * Total *    0.00000     21.99954    66.00046    0.00000    88.00000

 Normal termination of Gaussian 09 at Tue Aug  3 16:34:46 2021.
