 Gaussian 09, Revision C.01,
 Gaussian 09:  EM64L-G09RevC.01 23-Sep-2011

 ------------------------
 # rhf/STO-3G nmr pop=nbo
 ------------------------

 99/9=1/99;
 -------
 comment
 -------
 Charge =  0 Multiplicity = 1

                         Standard orientation:
 ---------------------------------------------------------------------
 Center     Atomic      Atomic             Coordinates (Angstroms)
 Number     Number       Type             X           Y           Z
 ---------------------------------------------------------------------
      1          6           0        2.799952   -0.134883    1.084394
      2          6           0        2.350956    0.033100   -0.369526
      3          6           0       -0.002023   -1.047550   -0.349379
      4          6           0        0.259605    1.460224   -0.044265
      5          6           0       -0.628391    0.338856   -0.616342
      6          6           0        1.680676    1.392013   -0.602498
      7          6           0        1.448396   -1.116340   -0.848729
      8          8           0       -0.021876   -1.381436    1.031272
      9          6           0       -2.119683    0.515868   -0.199096
     10          6           0       -2.380921    0.696421    1.298948
     11          6           0       -3.009166   -0.602394   -0.750903
     12          1           0        3.538051    0.631779    1.344703
     13          1           0        1.974435   -0.046897    1.795051
     14          1           0        3.272745   -1.111375    1.233282
     15          1           0        3.265341    0.005023   -0.977485
     16          1           0       -0.564092   -1.824276   -0.880849
     17          1           0        0.300325    1.404036    1.048799
     18          1           0       -0.170531    2.437225   -0.295982
     19          1           0       -0.617044    0.463823   -1.710405
     20          1           0        2.286366    2.194378   -0.164664
     21          1           0        1.643266    1.587053   -1.682190
     22          1           0        1.895843   -2.074433   -0.556384
     23          1           0        1.431163   -1.097020   -1.946551
     24          1           0       -0.888238   -1.776746    1.224321
     25          1           0       -2.459991    1.445502   -0.677908
     26          1           0       -2.100492   -0.182218    1.883126
     27          1           0       -1.847243    1.562602    1.700233
     28          1           0       -3.447879    0.874232    1.477075
     29          1           0       -2.823363   -1.555522   -0.245895
     30          1           0       -2.842660   -0.741269   -1.824198
     31          1           0       -4.067403   -0.356284   -0.609889
 ---------------------------------------------------------------------

 SCF Done:  E(RHF) =  -459.615575467     A.U. after   10 cycles

      1  C    Isotropic =   222.0958   Anisotropy =    24.9579

      2  C    Isotropic =   216.3435   Anisotropy =     3.9352

      3  C    Isotropic =   189.2786   Anisotropy =    38.6979

      4  C    Isotropic =   219.4965   Anisotropy =    16.0172

      5  C    Isotropic =   210.4391   Anisotropy =    15.4920

      6  C    Isotropic =   216.5272   Anisotropy =    10.6142

      7  C    Isotropic =   215.2357   Anisotropy =    11.2937

      8  O    Isotropic =   366.8149   Anisotropy =    86.8595

      9  C    Isotropic =   213.1556   Anisotropy =    17.2167

     10  C    Isotropic =   223.3887   Anisotropy =    21.4768

     11  C    Isotropic =   221.9567   Anisotropy =    24.0911

     12  H    Isotropic =    32.6001   Anisotropy =    14.7887

     13  H    Isotropic =    32.0318   Anisotropy =     7.3610

     14  H    Isotropic =    32.4541   Anisotropy =    13.7200

     15  H    Isotropic =    32.4037   Anisotropy =    15.4819

     16  H    Isotropic =    31.9565   Anisotropy =     9.7864

     17  H    Isotropic =    32.2641   Anisotropy =     8.1792

     18  H    Isotropic =    32.6187   Anisotropy =    13.3974

     19  H    Isotropic =    32.8291   Anisotropy =    10.2762

     20  H    Isotropic =    32.3883   Anisotropy =    14.6155

     21  H    Isotropic =    32.5584   Anisotropy =    13.4138

     22  H    Isotropic =    32.0110   Anisotropy =    13.5589

     23  H    Isotropic =    32.5144   Anisotropy =    13.3061

     24  H    Isotropic =    34.9194   Anisotropy =    17.6423

     25  H    Isotropic =    32.3976   Anisotropy =    12.6643

     26  H    Isotropic =    32.9911   Anisotropy =     9.0519

     27  H    Isotropic =    32.3370   Anisotropy =    10.9712

     28  H    Isotropic =    32.6493   Anisotropy =    14.6701

     29  H    Isotropic =    33.0451   Anisotropy =     9.4595

     30  H    Isotropic =    32.5801   Anisotropy =    12.4622

     31  H    Isotropic =    32.4807   Anisotropy =    14.5698

 The electronic state is 1-A.
 Alpha  occ. eigenvalues --  -20.23720 -11.08539 -11.04954 -11.04082 -11.03965
 Alpha  occ. eigenvalues --  -11.03650 -11.03510 -11.03118 -11.03098 -11.03088
 Alpha  occ. eigenvalues --  -11.01819  -1.28029  -1.07608  -1.03627  -0.96336
 Alpha  occ. eigenvalues --   -0.94942  -0.89296  -0.87508  -0.79324  -0.78619
 Alpha  occ. eigenvalues --   -0.72504  -0.67691  -0.63930  -0.60713  -0.58964
 Alpha  occ. eigenvalues --   -0.57502  -0.55956  -0.54447  -0.53267  -0.52547
 Alpha  occ. eigenvalues --   -0.50669  -0.49750  -0.49397  -0.47522  -0.46387
 Alpha  occ. eigenvalues --   -0.45343  -0.44277  -0.43197  -0.41799  -0.40543
 Alpha  occ. eigenvalues --   -0.39455  -0.38971  -0.36017  -0.32577
 Alpha virt. eigenvalues --    0.52585   0.56457   0.57130   0.59390   0.61030
 Alpha virt. eigenvalues --    0.61293   0.62704   0.65603   0.65976   0.67470
 Alpha virt. eigenvalues --    0.68029   0.69178   0.70769   0.71012   0.72221

 Mulliken atomic charges:
              1
     1  C   -0.174751
     2  C   -0.021739
     3  C    0.076257
     4  C   -0.101520
     5  C   -0.038420
     6  C   -0.099561
     7  C   -0.104212
     8  O   -0.316517
     9  C   -0.022346
    10  C   -0.175940
    11  C   -0.174049
    12  H    0.048455
    13  H    0.066200
    14  H    0.052865
    15  H    0.046250
    16  H    0.041714
    17  H    0.056434
    18  H    0.047740
    19  H    0.043596
    20  H    0.050101
    21  H    0.043946
    22  H    0.058251
    23  H    0.048757
    24  H    0.178650
    25  H    0.048683
    26  H    0.052551
    27  H    0.059036
    28  H    0.053332
    29  H    0.045743
    30  H    0.054269
    31  H    0.056224
 Sum of Mulliken atomic charges =   0.00000

 Dipole moment (field-independent basis, Debye):
    X=             -1.0629    Y=             -0.0897    Z=             -0.9274  Tot=              1.4135
 Quadrupole moment (field-independent basis, Debye-Ang):
   XX=            -66.8477   YY=            -66.7001   ZZ=            -68.4748
   XY=              1.5662   XZ=             -1.4791   YZ=              0.5870

 Summary of Natural Population Analysis:

                                       Natural Population
                Natural  -----------------------------------------------
    Atom  No    Charge         Core      Valence    Rydberg      Total
 -----------------------------------------------------------------------
      C    1   -0.13067      1.99997     4.13070    0.00000     6.13067
      C    2    0.01657      1.99997     3.98347    0.00000     5.98343
      C    3    0.14334      1.99989     3.85677    0.00000     5.85666
      C    4   -0.06462      1.99996     4.06467    0.00000     6.06462
      C    5   -0.01823      1.99995     4.01828    0.00000     6.01823
      C    6   -0.06204      1.99996     4.06207    0.00000     6.06204
      C    7   -0.07931      1.99995     4.07935    0.00000     6.07931
      O    8   -0.33775      1.99999     6.33775    0.00000     8.33775
      C    9    0.01862      1.99996     3.98142    0.00000     5.98138
      C   10   -0.13243      1.99997     4.13246    0.00000     6.13243
      C   11   -0.12958      1.99997     4.12961    0.00000     6.12958
      H   12    0.03171      0.00000     0.96829    0.00000     0.96829
      H   13    0.04735      0.00000     0.95265    0.00000     0.95265
      H   14    0.03591      0.00000     0.96409    0.00000     0.96409
      H   15    0.02204      0.00000     0.97796    0.00000     0.97796
      H   16    0.00696      0.00000     0.99304    0.00000     0.99304
      H   17    0.03459      0.00000     0.96541    0.00000     0.96541
      H   18    0.02723      0.00000     0.97277    0.00000     0.97277
      H   19    0.01919      0.00000     0.98081    0.00000     0.98081
      H   20    0.02945      0.00000     0.97055    0.00000     0.97055
      H   21    0.02345      0.00000     0.97655    0.00000     0.97655
      H   22    0.03691      0.00000     0.96309    0.00000     0.96309
      H   23    0.02844      0.00000     0.97156    0.00000     0.97156
      H   24    0.19149      0.00000     0.80851    0.00000     0.80851
      H   25    0.02362      0.00000     0.97638    0.00000     0.97638
      H   26    0.03501      0.00000     0.96499    0.00000     0.96499
      H   27    0.04143      0.00000     0.95857    0.00000     0.95857
      H   28    0.03648      0.00000     0.96352    0.00000     0.96352
      H   29    0.02905      0.00000     0.97095    0.00000     0.97095
      H   30    0.03690      0.00000     0.96310    0.00000     0.96310
      H   31    0.03889      0.00000     0.96111    0.00000     0.96111
 =======================================================================
   * Total *    0.00000     21.99954    66.00046    0.00000    88.00000

 Normal termination of Gaussian 09 at Tue Aug  3 16:34:28 2021.
