 Gaussian 09, Revision C.01,
 Gaussian 09:  EM64L-G09RevC.01 23-Sep-2011

 ------------------------
 # rhf/STO-3G nmr pop=nbo
 ------------------------

 99/9=1/99;
 -------
 comment
 -------
 Charge =  0 Multiplicity = 1

                         Standard orientation:
 ---------------------------------------------------------------------
 Center     Atomic      Atomic             Coordinates (Angstroms)
 Number     Number       Type             X           Y           Z
 ---------------------------------------------------------------------
      1          6           0        2.821583   -0.257278    1.006315
      2          6           0        2.331160    0.103681   -0.398353
      3          6           0       -0.017539   -0.978000   -0.457167
      4          6           0        0.242892    1.466039    0.165409
      5          6           0       -0.650156    0.427554   -0.540351
      6          6           0        1.653775    1.479629   -0.424174
      7          6           0        1.417598   -0.976305   -1.004155
      8          8           0       -0.016419   -1.457318    0.880832
      9          6           0       -2.132991    0.535359   -0.075260
     10          6           0       -2.381650    0.315937    1.418980
     11          6           0       -3.049142   -0.387579   -0.886295
     12          1           0        3.571692    0.466474    1.343782
     13          1           0        2.017899   -0.261761    1.746770
     14          1           0        3.292489   -1.245919    1.010385
     15          1           0        3.228097    0.163045   -1.029616
     16          1           0       -0.607398   -1.684433   -1.051200
     17          1           0        0.302497    1.265133    1.240200
     18          1           0       -0.193602    2.466066    0.054810
     19          1           0       -0.654613    0.699013   -1.607329
     20          1           0        2.267551    2.215590    0.108741
     21          1           0        1.594462    1.823177   -1.465204
     22          1           0        1.874937   -1.962389   -0.856698
     23          1           0        1.368558   -0.810119   -2.088447
     24          1           0        0.371863   -2.348673    0.875265
     25          1           0       -2.452899    1.563663   -0.295832
     26          1           0       -2.204397   -0.720205    1.719378
     27          1           0       -1.760647    0.969887    2.036721
     28          1           0       -3.425782    0.544027    1.663028
     29          1           0       -2.874389   -1.442131   -0.650550
     30          1           0       -2.897122   -0.244834   -1.961196
     31          1           0       -4.101031   -0.171281   -0.669352
 ---------------------------------------------------------------------

 SCF Done:  E(RHF) =  -459.618292621     A.U. after   10 cycles

      1  C    Isotropic =   222.2951   Anisotropy =    24.8326

      2  C    Isotropic =   216.3762   Anisotropy =     3.7686

      3  C    Isotropic =   190.1196   Anisotropy =    37.9941

      4  C    Isotropic =   219.2685   Anisotropy =    16.4758

      5  C    Isotropic =   209.5723   Anisotropy =    15.0892

      6  C    Isotropic =   216.3640   Anisotropy =    11.0142

      7  C    Isotropic =   213.8206   Anisotropy =    11.1343

      8  O    Isotropic =   357.1477   Anisotropy =    99.0141

      9  C    Isotropic =   212.4534   Anisotropy =    17.7855

     10  C    Isotropic =   223.5393   Anisotropy =    21.1923

     11  C    Isotropic =   221.3316   Anisotropy =    25.6030

     12  H    Isotropic =    32.5720   Anisotropy =    14.7668

     13  H    Isotropic =    32.0354   Anisotropy =     7.2287

     14  H    Isotropic =    32.7525   Anisotropy =    13.4869

     15  H    Isotropic =    32.4388   Anisotropy =    15.2738

     16  H    Isotropic =    31.9371   Anisotropy =    10.2137

     17  H    Isotropic =    32.1772   Anisotropy =     8.4241

     18  H    Isotropic =    32.5874   Anisotropy =    13.7361

     19  H    Isotropic =    32.7520   Anisotropy =    10.0559

     20  H    Isotropic =    32.3766   Anisotropy =    14.5772

     21  H    Isotropic =    32.5262   Anisotropy =    13.3953

     22  H    Isotropic =    32.9128   Anisotropy =    13.0443

     23  H    Isotropic =    32.4786   Anisotropy =    13.0143

     24  H    Isotropic =    35.3201   Anisotropy =    18.8626

     25  H    Isotropic =    32.4224   Anisotropy =    12.5993

     26  H    Isotropic =    32.1485   Anisotropy =     9.3135

     27  H    Isotropic =    32.3537   Anisotropy =    10.4624

     28  H    Isotropic =    32.5846   Anisotropy =    14.9948

     29  H    Isotropic =    32.4058   Anisotropy =     9.3878

     30  H    Isotropic =    32.5811   Anisotropy =    12.5035

     31  H    Isotropic =    32.3691   Anisotropy =    14.6975

 The electronic state is 1-A.
 Alpha  occ. eigenvalues --  -20.23746 -11.08607 -11.04415 -11.04325 -11.04220
 Alpha  occ. eigenvalues --  -11.03795 -11.03276 -11.03054 -11.02638 -11.02448
 Alpha  occ. eigenvalues --  -11.01824  -1.28042  -1.07610  -1.03222  -0.96306
 Alpha  occ. eigenvalues --   -0.94983  -0.88123  -0.87799  -0.79316  -0.78775
 Alpha  occ. eigenvalues --   -0.72219  -0.67997  -0.63276  -0.60147  -0.58556
 Alpha  occ. eigenvalues --   -0.57145  -0.56471  -0.54193  -0.53472  -0.51887
 Alpha  occ. eigenvalues --   -0.50839  -0.49934  -0.49060  -0.48175  -0.45848
 Alpha  occ. eigenvalues --   -0.45222  -0.43612  -0.42379  -0.41971  -0.40567
 Alpha  occ. eigenvalues --   -0.39702  -0.38366  -0.36012  -0.32768
 Alpha virt. eigenvalues --    0.52970   0.56417   0.57903   0.59791   0.60788
 Alpha virt. eigenvalues --    0.61825   0.62680   0.65607   0.66674   0.67278
 Alpha virt. eigenvalues --    0.68733   0.69751   0.70516   0.71393   0.72613

 Mulliken atomic charges:
              1
     1  C   -0.177131
     2  C   -0.022219
     3  C    0.076061
     4  C   -0.101461
     5  C   -0.029728
     6  C   -0.099588
     7  C   -0.112776
     8  O   -0.316184
     9  C   -0.016404
    10  C   -0.175154
    11  C   -0.173461
    12  H    0.051341
    13  H    0.066147
    14  H    0.048752
    15  H    0.047028
    16  H    0.041184
    17  H    0.057896
    18  H    0.048856
    19  H    0.045754
    20  H    0.050422
    21  H    0.044521
    22  H    0.045404
    23  H    0.050047
    24  H    0.177571
    25  H    0.045623
    26  H    0.066624
    27  H    0.054878
    28  H    0.048958
    29  H    0.053798
    30  H    0.049683
    31  H    0.053557
 Sum of Mulliken atomic charges =   0.00000

 Dipole moment (field-independent basis, Debye):
    X=              0.4902    Y=             -0.5699    Z=             -1.0614  Tot=              1.3006
 Quadrupole moment (field-independent basis, Debye-Ang):
   XX=            -68.1414   YY=            -64.1119   ZZ=            -68.8235
   XY=             -1.3189   XZ=              0.3381   YZ=              0.4189

 Summary of Natural Population Analysis:

                                       Natural Population
                Natural  -----------------------------------------------
    Atom  No    Charge         Core      Valence    Rydberg      Total
 -----------------------------------------------------------------------
      C    1   -0.13293      1.99997     4.13296    0.00000     6.13293
      C    2    0.01640      1.99997     3.98363    0.00000     5.98360
      C    3    0.14358      1.99989     3.85653    0.00000     5.85642
      C    4   -0.06499      1.99996     4.06503    0.00000     6.06499
      C    5   -0.00790      1.99995     4.00795    0.00000     6.00790
      C    6   -0.06196      1.99996     4.06200    0.00000     6.06196
      C    7   -0.08794      1.99996     4.08798    0.00000     6.08794
      O    8   -0.33718      1.99999     6.33719    0.00000     8.33718
      C    9    0.02454      1.99996     3.97550    0.00000     5.97546
      C   10   -0.13228      1.99997     4.13231    0.00000     6.13228
      C   11   -0.12924      1.99997     4.12927    0.00000     6.12924
      H   12    0.03451      0.00000     0.96549    0.00000     0.96549
      H   13    0.04734      0.00000     0.95266    0.00000     0.95266
      H   14    0.03219      0.00000     0.96781    0.00000     0.96781
      H   15    0.02267      0.00000     0.97733    0.00000     0.97733
      H   16    0.00527      0.00000     0.99473    0.00000     0.99473
      H   17    0.03586      0.00000     0.96414    0.00000     0.96414
      H   18    0.02824      0.00000     0.97176    0.00000     0.97176
      H   19    0.02096      0.00000     0.97904    0.00000     0.97904
      H   20    0.02968      0.00000     0.97032    0.00000     0.97032
      H   21    0.02391      0.00000     0.97609    0.00000     0.97609
      H   22    0.02544      0.00000     0.97456    0.00000     0.97456
      H   23    0.02985      0.00000     0.97015    0.00000     0.97015
      H   24    0.19034      0.00000     0.80966    0.00000     0.80966
      H   25    0.02048      0.00000     0.97952    0.00000     0.97952
      H   26    0.04788      0.00000     0.95212    0.00000     0.95212
      H   27    0.03756      0.00000     0.96244    0.00000     0.96244
      H   28    0.03242      0.00000     0.96758    0.00000     0.96758
      H   29    0.03629      0.00000     0.96371    0.00000     0.96371
      H   30    0.03260      0.00000     0.96740    0.00000     0.96740
      H   31    0.03642      0.00000     0.96358    0.00000     0.96358
 =======================================================================
   * Total *    0.00000     21.99954    66.00046    0.00000    88.00000

 Normal termination of Gaussian 09 at Tue Aug  3 16:35:17 2021.
