 Gaussian 09, Revision C.01,
 Gaussian 09:  EM64L-G09RevC.01 23-Sep-2011

 ------------------------
 # rhf/STO-3G nmr pop=nbo
 ------------------------

 99/9=1/99;
 -------
 comment
 -------
 Charge =  0 Multiplicity = 1

                         Standard orientation:
 ---------------------------------------------------------------------
 Center     Atomic      Atomic             Coordinates (Angstroms)
 Number     Number       Type             X           Y           Z
 ---------------------------------------------------------------------
      1          6           0       -3.214653   -0.104884    0.740459
      2          6           0       -2.148333   -0.610662   -0.232787
      3          6           0       -0.270513    1.064217   -0.727725
      4          6           0        0.248158   -1.425002   -0.305304
      5          6           0        0.811000   -0.047637   -0.726396
      6          6           0       -1.019693   -1.318261    0.533636
      7          6           0       -1.632534    0.512560   -1.154692
      8          8           0       -0.395973    1.691404    0.541710
      9          6           0        2.119913    0.362777    0.012841
     10          6           0        3.319453   -0.423536   -0.536427
     11          6           0        2.086261    0.208282    1.537821
     12          1           0       -2.815931    0.663673    1.410336
     13          1           0       -4.062699    0.325992    0.197789
     14          1           0       -3.596420   -0.925837    1.356772
     15          1           0       -2.637400   -1.353719   -0.877574
     16          1           0        0.039730    1.845383   -1.432345
     17          1           0        0.994986   -2.027594    0.220651
     18          1           0        0.007053   -1.993199   -1.214361
     19          1           0        1.086143   -0.168843   -1.785656
     20          1           0       -1.354691   -2.322154    0.822088
     21          1           0       -0.794024   -0.792178    1.469064
     22          1           0       -2.367958    1.324582   -1.206222
     23          1           0       -1.539294    0.114222   -2.173623
     24          1           0       -1.067722    2.389735    0.461177
     25          1           0        2.311268    1.421140   -0.209788
     26          1           0        3.223120   -1.497121   -0.346004
     27          1           0        3.419623   -0.277605   -1.617189
     28          1           0        4.250995   -0.082604   -0.071562
     29          1           0        3.012274    0.598015    1.976082
     30          1           0        2.002342   -0.839186    1.843110
     31          1           0        1.262033    0.758938    1.995029
 ---------------------------------------------------------------------

 SCF Done:  E(RHF) =  -459.609386181     A.U. after   10 cycles

      1  C    Isotropic =   220.0831   Anisotropy =    27.5916

      2  C    Isotropic =   216.0949   Anisotropy =     7.8518

      3  C    Isotropic =   187.5299   Anisotropy =    33.3965

      4  C    Isotropic =   219.7243   Anisotropy =    13.3483

      5  C    Isotropic =   209.9631   Anisotropy =    18.9917

      6  C    Isotropic =   217.4706   Anisotropy =    17.2489

      7  C    Isotropic =   214.9598   Anisotropy =    12.1313

      8  O    Isotropic =   357.6415   Anisotropy =    99.7275

      9  C    Isotropic =   213.3487   Anisotropy =    15.7503

     10  C    Isotropic =   220.1810   Anisotropy =    28.7104

     11  C    Isotropic =   223.3466   Anisotropy =    22.0048

     12  H    Isotropic =    32.5185   Anisotropy =     9.0799

     13  H    Isotropic =    32.5883   Anisotropy =    14.0113

     14  H    Isotropic =    32.3952   Anisotropy =    14.0296

     15  H    Isotropic =    32.4150   Anisotropy =    14.0020

     16  H    Isotropic =    31.8313   Anisotropy =    11.5432

     17  H    Isotropic =    32.3950   Anisotropy =    11.6527

     18  H    Isotropic =    32.5706   Anisotropy =    13.4753

     19  H    Isotropic =    32.4085   Anisotropy =    11.6784

     20  H    Isotropic =    32.4084   Anisotropy =    14.6533

     21  H    Isotropic =    32.4328   Anisotropy =     7.9601

     22  H    Isotropic =    32.9088   Anisotropy =    12.7278

     23  H    Isotropic =    32.3254   Anisotropy =    13.0116

     24  H    Isotropic =    35.2601   Anisotropy =    18.9153

     25  H    Isotropic =    32.1388   Anisotropy =    11.1738

     26  H    Isotropic =    32.4530   Anisotropy =    10.0879

     27  H    Isotropic =    32.5547   Anisotropy =    13.1499

     28  H    Isotropic =    32.4049   Anisotropy =    14.4962

     29  H    Isotropic =    32.5477   Anisotropy =    14.8904

     30  H    Isotropic =    32.6913   Anisotropy =     9.2250

     31  H    Isotropic =    31.9158   Anisotropy =     9.9233

 The electronic state is 1-A.
 Alpha  occ. eigenvalues --  -20.23711 -11.08610 -11.04328 -11.04166 -11.04133
 Alpha  occ. eigenvalues --  -11.03700 -11.03142 -11.02959 -11.02852 -11.02546
 Alpha  occ. eigenvalues --  -11.01749  -1.28046  -1.07473  -1.03109  -0.96285
 Alpha  occ. eigenvalues --   -0.95074  -0.88051  -0.87622  -0.80140  -0.77769
 Alpha  occ. eigenvalues --   -0.72307  -0.67247  -0.64097  -0.60996  -0.59085
 Alpha  occ. eigenvalues --   -0.57229  -0.54556  -0.53855  -0.52843  -0.52489
 Alpha  occ. eigenvalues --   -0.51345  -0.49827  -0.49229  -0.47669  -0.46411
 Alpha  occ. eigenvalues --   -0.45068  -0.42823  -0.42549  -0.42050  -0.40515
 Alpha  occ. eigenvalues --   -0.39223  -0.38743  -0.35791  -0.32903
 Alpha virt. eigenvalues --    0.52281   0.55905   0.58316   0.59735   0.60222
 Alpha virt. eigenvalues --    0.61542   0.61836   0.65169   0.66265   0.66736
 Alpha virt. eigenvalues --    0.68569   0.69648   0.71301   0.71835   0.71944

 Mulliken atomic charges:
              1
     1  C   -0.171963
     2  C   -0.021901
     3  C    0.079184
     4  C   -0.102192
     5  C   -0.032160
     6  C   -0.100673
     7  C   -0.115533
     8  O   -0.317550
     9  C   -0.015165
    10  C   -0.172523
    11  C   -0.177544
    12  H    0.055802
    13  H    0.049771
    14  H    0.053839
    15  H    0.045660
    16  H    0.038834
    17  H    0.053543
    18  H    0.044496
    19  H    0.047198
    20  H    0.048248
    21  H    0.058983
    22  H    0.046633
    23  H    0.051112
    24  H    0.177524
    25  H    0.049883
    26  H    0.051833
    27  H    0.049906
    28  H    0.053312
    29  H    0.050286
    30  H    0.049642
    31  H    0.071516
 Sum of Mulliken atomic charges =   0.00000

 Dipole moment (field-independent basis, Debye):
    X=             -0.7340    Y=              0.2838    Z=             -1.0876  Tot=              1.3425
 Quadrupole moment (field-independent basis, Debye-Ang):
   XX=            -67.2840   YY=            -65.3024   ZZ=            -68.0955
   XY=             -1.8085   XZ=              0.2529   YZ=             -1.2892

 Summary of Natural Population Analysis:

                                       Natural Population
                Natural  -----------------------------------------------
    Atom  No    Charge         Core      Valence    Rydberg      Total
 -----------------------------------------------------------------------
      C    1   -0.12707      1.99998     4.12710    0.00000     6.12707
      C    2    0.01704      1.99997     3.98299    0.00000     5.98296
      C    3    0.14729      1.99989     3.85282    0.00000     5.85271
      C    4   -0.06549      1.99996     4.06554    0.00000     6.06549
      C    5   -0.00999      1.99995     4.01005    0.00000     6.00999
      C    6   -0.06410      1.99996     4.06413    0.00000     6.06410
      C    7   -0.09193      1.99996     4.09197    0.00000     6.09193
      O    8   -0.33887      1.99999     6.33888    0.00000     8.33887
      C    9    0.02604      1.99996     3.97400    0.00000     5.97396
      C   10   -0.12792      1.99997     4.12795    0.00000     6.12792
      C   11   -0.13417      1.99996     4.13420    0.00000     6.13417
      H   12    0.03804      0.00000     0.96196    0.00000     0.96196
      H   13    0.03268      0.00000     0.96732    0.00000     0.96732
      H   14    0.03656      0.00000     0.96344    0.00000     0.96344
      H   15    0.02119      0.00000     0.97881    0.00000     0.97881
      H   16    0.00300      0.00000     0.99700    0.00000     0.99700
      H   17    0.03255      0.00000     0.96745    0.00000     0.96745
      H   18    0.02397      0.00000     0.97603    0.00000     0.97603
      H   19    0.02210      0.00000     0.97790    0.00000     0.97790
      H   20    0.02794      0.00000     0.97206    0.00000     0.97206
      H   21    0.03704      0.00000     0.96296    0.00000     0.96296
      H   22    0.02687      0.00000     0.97313    0.00000     0.97313
      H   23    0.03125      0.00000     0.96875    0.00000     0.96875
      H   24    0.19040      0.00000     0.80960    0.00000     0.80960
      H   25    0.02421      0.00000     0.97579    0.00000     0.97579
      H   26    0.03426      0.00000     0.96574    0.00000     0.96574
      H   27    0.03259      0.00000     0.96741    0.00000     0.96741
      H   28    0.03595      0.00000     0.96405    0.00000     0.96405
      H   29    0.03378      0.00000     0.96622    0.00000     0.96622
      H   30    0.03272      0.00000     0.96728    0.00000     0.96728
      H   31    0.05205      0.00000     0.94795    0.00000     0.94795
 =======================================================================
   * Total *    0.00000     21.99954    66.00046    0.00000    88.00000

 Normal termination of Gaussian 09 at Tue Aug  3 16:35:35 2021.
