 Gaussian 09, Revision C.01,
 Gaussian 09:  EM64L-G09RevC.01 23-Sep-2011

 ------------------------
 # rhf/STO-3G nmr pop=nbo
 ------------------------

 99/9=1/99;
 -------
 comment
 -------
 Charge =  0 Multiplicity = 1

                         Standard orientation:
 ---------------------------------------------------------------------
 Center     Atomic      Atomic             Coordinates (Angstroms)
 Number     Number       Type             X           Y           Z
 ---------------------------------------------------------------------
      1          6           0       -3.306120   -0.553311    0.659527
      2          6           0       -2.104050   -0.255547   -0.235255
      3          6           0       -0.151321    1.310902   -0.622042
      4          6           0        0.088949   -1.168880   -1.125150
      5          6           0        0.841958    0.134564   -0.790627
      6          6           0       -1.141047   -1.444365   -0.261634
      7          6           0       -1.384118    1.010170    0.230265
      8          8           0        0.495930    2.482092   -0.136336
      9          6           0        1.953488    0.011704    0.300009
     10          6           0        3.087771   -0.920010   -0.156561
     11          6           0        1.489030   -0.422185    1.687613
     12          1           0       -4.010578    0.285108    0.654843
     13          1           0       -3.840862   -1.442018    0.308147
     14          1           0       -2.998065   -0.731033    1.695525
     15          1           0       -2.477607   -0.088289   -1.254334
     16          1           0       -0.513598    1.568512   -1.626243
     17          1           0        0.755972   -2.035542   -1.093228
     18          1           0       -0.250462   -1.098706   -2.168063
     19          1           0        1.410709    0.387702   -1.699672
     20          1           0       -0.840260   -1.704169    0.757730
     21          1           0       -1.659061   -2.325946   -0.659655
     22          1           0       -1.114705    0.933160    1.288519
     23          1           0       -2.067518    1.868227    0.178491
     24          1           0        0.654103    2.367129    0.815824
     25          1           0        2.415761    1.001170    0.411239
     26          1           0        2.772055   -1.967099   -0.188190
     27          1           0        3.451861   -0.639418   -1.150328
     28          1           0        3.936271   -0.855050    0.533890
     29          1           0        1.107948   -1.446590    1.688248
     30          1           0        0.724274    0.243402    2.089413
     31          1           0        2.329090   -0.395544    2.391665
 ---------------------------------------------------------------------

 SCF Done:  E(RHF) =  -459.612924145     A.U. after   10 cycles

      1  C    Isotropic =   221.0588   Anisotropy =    28.3377

      2  C    Isotropic =   215.6268   Anisotropy =     7.1827

      3  C    Isotropic =   188.8570   Anisotropy =    39.3471

      4  C    Isotropic =   219.3640   Anisotropy =    13.9252

      5  C    Isotropic =   211.8375   Anisotropy =    14.7816

      6  C    Isotropic =   217.5541   Anisotropy =    15.9720

      7  C    Isotropic =   215.1877   Anisotropy =    22.8529

      8  O    Isotropic =   357.7308   Anisotropy =    79.4612

      9  C    Isotropic =   215.6572   Anisotropy =    13.1205

     10  C    Isotropic =   220.5789   Anisotropy =    28.6967

     11  C    Isotropic =   223.3260   Anisotropy =    18.8455

     12  H    Isotropic =    32.4554   Anisotropy =    14.0311

     13  H    Isotropic =    32.4660   Anisotropy =    13.9907

     14  H    Isotropic =    32.7591   Anisotropy =    10.8019

     15  H    Isotropic =    32.7879   Anisotropy =    12.2369

     16  H    Isotropic =    31.3405   Anisotropy =    11.4455

     17  H    Isotropic =    32.4225   Anisotropy =    12.4014

     18  H    Isotropic =    32.5837   Anisotropy =    14.1486

     19  H    Isotropic =    32.0734   Anisotropy =    12.9771

     20  H    Isotropic =    33.0463   Anisotropy =     8.9993

     21  H    Isotropic =    32.5876   Anisotropy =    14.3417

     22  H    Isotropic =    33.3651   Anisotropy =     8.0383

     23  H    Isotropic =    32.1460   Anisotropy =    13.6476

     24  H    Isotropic =    35.1178   Anisotropy =    12.9575

     25  H    Isotropic =    32.3341   Anisotropy =    11.3885

     26  H    Isotropic =    32.5294   Anisotropy =     9.9774

     27  H    Isotropic =    32.4947   Anisotropy =    13.4520

     28  H    Isotropic =    32.4319   Anisotropy =    14.4622

     29  H    Isotropic =    32.8741   Anisotropy =     8.6473

     30  H    Isotropic =    33.2038   Anisotropy =     9.6425

     31  H    Isotropic =    32.6758   Anisotropy =    14.7138

 The electronic state is 1-A.
 Alpha  occ. eigenvalues --  -20.23947 -11.08541 -11.04904 -11.04879 -11.04074
 Alpha  occ. eigenvalues --  -11.03776 -11.03761 -11.03662 -11.03540 -11.03316
 Alpha  occ. eigenvalues --  -11.03151  -1.27947  -1.08302  -1.03885  -0.97245
 Alpha  occ. eigenvalues --   -0.94961  -0.89606  -0.88181  -0.80054  -0.78326
 Alpha  occ. eigenvalues --   -0.74064  -0.69377  -0.62313  -0.61105  -0.59227
 Alpha  occ. eigenvalues --   -0.57327  -0.56352  -0.54904  -0.53159  -0.52584
 Alpha  occ. eigenvalues --   -0.51889  -0.50472  -0.49253  -0.48707  -0.47218
 Alpha  occ. eigenvalues --   -0.46514  -0.44337  -0.43039  -0.42599  -0.41438
 Alpha  occ. eigenvalues --   -0.40112  -0.38709  -0.36102  -0.32765
 Alpha virt. eigenvalues --    0.53297   0.55574   0.57834   0.58530   0.59818
 Alpha virt. eigenvalues --    0.61377   0.62131   0.62972   0.64642   0.65815
 Alpha virt. eigenvalues --    0.68595   0.69472   0.70610   0.71214   0.72326

 Mulliken atomic charges:
              1
     1  C   -0.171726
     2  C   -0.022791
     3  C    0.075726
     4  C   -0.104355
     5  C   -0.042651
     6  C   -0.102191
     7  C   -0.115649
     8  O   -0.311308
     9  C   -0.025190
    10  C   -0.171751
    11  C   -0.178625
    12  H    0.054395
    13  H    0.054369
    14  H    0.052826
    15  H    0.047615
    16  H    0.056851
    17  H    0.053708
    18  H    0.048073
    19  H    0.050834
    20  H    0.049288
    21  H    0.050132
    22  H    0.044334
    23  H    0.056055
    24  H    0.178000
    25  H    0.053087
    26  H    0.052516
    27  H    0.054627
    28  H    0.054067
    29  H    0.056316
    30  H    0.048101
    31  H    0.055317
 Sum of Mulliken atomic charges =   0.00000

 Dipole moment (field-independent basis, Debye):
    X=             -0.3060    Y=             -1.2081    Z=              0.6963  Tot=              1.4276
 Quadrupole moment (field-independent basis, Debye-Ang):
   XX=            -67.7631   YY=            -72.8212   ZZ=            -66.1534
   XY=             -1.0757   XZ=              1.4959   YZ=              2.4752

 Summary of Natural Population Analysis:

                                       Natural Population
                Natural  -----------------------------------------------
    Atom  No    Charge         Core      Valence    Rydberg      Total
 -----------------------------------------------------------------------
      C    1   -0.12680      1.99997     4.12683    0.00000     6.12680
      C    2    0.01578      1.99997     3.98425    0.00000     5.98422
      C    3    0.14173      1.99989     3.85838    0.00000     5.85827
      C    4   -0.06663      1.99995     4.06668    0.00000     6.06663
      C    5   -0.02188      1.99995     4.02193    0.00000     6.02188
      C    6   -0.06541      1.99996     4.06545    0.00000     6.06541
      C    7   -0.09254      1.99996     4.09257    0.00000     6.09254
      O    8   -0.33177      1.99999     6.33178    0.00000     8.33177
      C    9    0.01599      1.99996     3.98406    0.00000     5.98401
      C   10   -0.12670      1.99997     4.12674    0.00000     6.12670
      C   11   -0.13499      1.99997     4.13503    0.00000     6.13499
      H   12    0.03705      0.00000     0.96295    0.00000     0.96295
      H   13    0.03705      0.00000     0.96295    0.00000     0.96295
      H   14    0.03558      0.00000     0.96442    0.00000     0.96442
      H   15    0.02366      0.00000     0.97634    0.00000     0.97634
      H   16    0.02171      0.00000     0.97829    0.00000     0.97829
      H   17    0.03240      0.00000     0.96760    0.00000     0.96760
      H   18    0.02746      0.00000     0.97254    0.00000     0.97254
      H   19    0.02541      0.00000     0.97459    0.00000     0.97459
      H   20    0.02813      0.00000     0.97187    0.00000     0.97187
      H   21    0.02988      0.00000     0.97012    0.00000     0.97012
      H   22    0.02446      0.00000     0.97554    0.00000     0.97554
      H   23    0.03559      0.00000     0.96441    0.00000     0.96441
      H   24    0.19021      0.00000     0.80979    0.00000     0.80979
      H   25    0.02742      0.00000     0.97258    0.00000     0.97258
      H   26    0.03476      0.00000     0.96524    0.00000     0.96524
      H   27    0.03689      0.00000     0.96311    0.00000     0.96311
      H   28    0.03665      0.00000     0.96335    0.00000     0.96335
      H   29    0.03908      0.00000     0.96092    0.00000     0.96092
      H   30    0.03121      0.00000     0.96879    0.00000     0.96879
      H   31    0.03862      0.00000     0.96138    0.00000     0.96138
 =======================================================================
   * Total *    0.00000     21.99954    66.00046    0.00000    88.00000

 Normal termination of Gaussian 09 at Tue Aug  3 16:35:35 2021.
