 Gaussian 09, Revision C.01,
 Gaussian 09:  EM64L-G09RevC.01 23-Sep-2011

 ------------------------
 # rhf/STO-3G nmr pop=nbo
 ------------------------

 99/9=1/99;
 -------
 comment
 -------
 Charge =  0 Multiplicity = 1

                         Standard orientation:
 ---------------------------------------------------------------------
 Center     Atomic      Atomic             Coordinates (Angstroms)
 Number     Number       Type             X           Y           Z
 ---------------------------------------------------------------------
      1          6           0       -2.815216    0.163457    1.033507
      2          6           0       -2.273621   -0.560038   -0.202250
      3          6           0       -0.261596    0.919247   -0.863789
      4          6           0        0.092488   -1.133118    0.585251
      5          6           0        0.694196   -0.244900   -0.518403
      6          6           0       -1.282796   -1.666984    0.180440
      7          6           0       -1.659181    0.403543   -1.232842
      8          8           0       -0.360876    1.840420    0.213511
      9          6           0        2.148125    0.227882   -0.217571
     10          6           0        3.148032   -0.912099   -0.460596
     11          6           0        2.379331    0.791603    1.187662
     12          1           0       -2.025159    0.610749    1.641761
     13          1           0       -3.511462    0.957492    0.743813
     14          1           0       -3.362337   -0.537254    1.673842
     15          1           0       -3.138818   -1.039283   -0.680021
     16          1           0        0.144654    1.472473   -1.719108
     17          1           0        0.002443   -0.577781    1.525219
     18          1           0        0.749823   -1.986686    0.784573
     19          1           0        0.748357   -0.860543   -1.428990
     20          1           0       -1.692473   -2.278954    0.992889
     21          1           0       -1.157365   -2.338905   -0.678716
     22          1           0       -2.340515    1.248447   -1.391221
     23          1           0       -1.585233   -0.126613   -2.191527
     24          1           0       -0.952750    2.559459   -0.065745
     25          1           0        2.396656    1.019987   -0.936533
     26          1           0        3.003166   -1.736564    0.244546
     27          1           0        3.048886   -1.309690   -1.476132
     28          1           0        4.177043   -0.553406   -0.347735
     29          1           0        2.221782    0.033366    1.961313
     30          1           0        1.730135    1.642517    1.403177
     31          1           0        3.411610    1.146280    1.288050
 ---------------------------------------------------------------------

 SCF Done:  E(RHF) =  -459.619070960     A.U. after   10 cycles

      1  C    Isotropic =   222.3128   Anisotropy =    24.8151

      2  C    Isotropic =   216.4012   Anisotropy =     3.5065

      3  C    Isotropic =   187.4079   Anisotropy =    31.9152

      4  C    Isotropic =   221.4971   Anisotropy =    13.1277

      5  C    Isotropic =   209.0624   Anisotropy =    15.9018

      6  C    Isotropic =   216.4540   Anisotropy =    11.5552

      7  C    Isotropic =   213.8224   Anisotropy =    10.5204

      8  O    Isotropic =   357.1940   Anisotropy =    98.8868

      9  C    Isotropic =   212.3821   Anisotropy =    17.8086

     10  C    Isotropic =   220.2114   Anisotropy =    28.6129

     11  C    Isotropic =   223.2317   Anisotropy =    21.7151

     12  H    Isotropic =    32.0391   Anisotropy =     7.2436

     13  H    Isotropic =    32.7461   Anisotropy =    13.5916

     14  H    Isotropic =    32.5771   Anisotropy =    14.6724

     15  H    Isotropic =    32.4410   Anisotropy =    15.2575

     16  H    Isotropic =    31.9456   Anisotropy =    10.9023

     17  H    Isotropic =    32.3492   Anisotropy =     8.3454

     18  H    Isotropic =    32.5874   Anisotropy =    13.0471

     19  H    Isotropic =    32.8050   Anisotropy =     9.7360

     20  H    Isotropic =    32.3972   Anisotropy =    14.3664

     21  H    Isotropic =    32.5717   Anisotropy =    13.2453

     22  H    Isotropic =    32.9010   Anisotropy =    13.2630

     23  H    Isotropic =    32.4374   Anisotropy =    13.0498

     24  H    Isotropic =    35.2449   Anisotropy =    19.0387

     25  H    Isotropic =    32.3410   Anisotropy =    11.2954

     26  H    Isotropic =    32.4307   Anisotropy =    10.0102

     27  H    Isotropic =    32.5637   Anisotropy =    12.7242

     28  H    Isotropic =    32.4057   Anisotropy =    14.5320

     29  H    Isotropic =    32.6404   Anisotropy =     9.6265

     30  H    Isotropic =    31.8760   Anisotropy =    10.5013

     31  H    Isotropic =    32.5738   Anisotropy =    14.8095

 The electronic state is 1-A.
 Alpha  occ. eigenvalues --  -20.23773 -11.08585 -11.04432 -11.04297 -11.04185
 Alpha  occ. eigenvalues --  -11.03788 -11.03308 -11.03107 -11.02584 -11.02460
 Alpha  occ. eigenvalues --  -11.01822  -1.28068  -1.07638  -1.03221  -0.96128
 Alpha  occ. eigenvalues --   -0.95109  -0.88039  -0.87836  -0.80247  -0.77670
 Alpha  occ. eigenvalues --   -0.72267  -0.68290  -0.63261  -0.59656  -0.58429
 Alpha  occ. eigenvalues --   -0.57632  -0.56928  -0.54027  -0.52991  -0.51785
 Alpha  occ. eigenvalues --   -0.51039  -0.50442  -0.49127  -0.48062  -0.45797
 Alpha  occ. eigenvalues --   -0.44744  -0.43701  -0.42302  -0.42091  -0.40564
 Alpha  occ. eigenvalues --   -0.39722  -0.38654  -0.35909  -0.32823
 Alpha virt. eigenvalues --    0.52963   0.55672   0.58578   0.60381   0.60593
 Alpha virt. eigenvalues --    0.61876   0.62662   0.65429   0.66432   0.67009
 Alpha virt. eigenvalues --    0.68842   0.70223   0.70515   0.71389   0.72554

 Mulliken atomic charges:
              1
     1  C   -0.177116
     2  C   -0.022190
     3  C    0.078307
     4  C   -0.102697
     5  C   -0.029964
     6  C   -0.099301
     7  C   -0.113417
     8  O   -0.317017
     9  C   -0.016886
    10  C   -0.172423
    11  C   -0.177433
    12  H    0.066076
    13  H    0.048814
    14  H    0.051370
    15  H    0.047094
    16  H    0.038634
    17  H    0.058621
    18  H    0.050040
    19  H    0.046446
    20  H    0.050522
    21  H    0.044642
    22  H    0.045340
    23  H    0.050116
    24  H    0.178204
    25  H    0.046570
    26  H    0.052352
    27  H    0.049677
    28  H    0.053099
    29  H    0.051761
    30  H    0.070899
    31  H    0.049860
 Sum of Mulliken atomic charges =   0.00000

 Dipole moment (field-independent basis, Debye):
    X=             -0.6621    Y=              0.0855    Z=             -1.1526  Tot=              1.3319
 Quadrupole moment (field-independent basis, Debye-Ang):
   XX=            -67.4768   YY=            -65.9027   ZZ=            -67.4971
   XY=             -1.7078   XZ=              0.4649   YZ=             -2.0576

 Summary of Natural Population Analysis:

                                       Natural Population
                Natural  -----------------------------------------------
    Atom  No    Charge         Core      Valence    Rydberg      Total
 -----------------------------------------------------------------------
      C    1   -0.13294      1.99997     4.13297    0.00000     6.13294
      C    2    0.01650      1.99997     3.98353    0.00000     5.98350
      C    3    0.14596      1.99989     3.85415    0.00000     5.85404
      C    4   -0.06639      1.99996     4.06643    0.00000     6.06639
      C    5   -0.00822      1.99995     4.00827    0.00000     6.00822
      C    6   -0.06144      1.99996     4.06148    0.00000     6.06144
      C    7   -0.08895      1.99996     4.08899    0.00000     6.08895
      O    8   -0.33820      1.99999     6.33821    0.00000     8.33820
      C    9    0.02436      1.99996     3.97568    0.00000     5.97564
      C   10   -0.12774      1.99997     4.12777    0.00000     6.12774
      C   11   -0.13428      1.99997     4.13431    0.00000     6.13428
      H   12    0.04727      0.00000     0.95273    0.00000     0.95273
      H   13    0.03224      0.00000     0.96776    0.00000     0.96776
      H   14    0.03454      0.00000     0.96546    0.00000     0.96546
      H   15    0.02272      0.00000     0.97728    0.00000     0.97728
      H   16    0.00289      0.00000     0.99711    0.00000     0.99711
      H   17    0.03670      0.00000     0.96330    0.00000     0.96330
      H   18    0.02935      0.00000     0.97065    0.00000     0.97065
      H   19    0.02156      0.00000     0.97844    0.00000     0.97844
      H   20    0.02973      0.00000     0.97027    0.00000     0.97027
      H   21    0.02398      0.00000     0.97602    0.00000     0.97602
      H   22    0.02544      0.00000     0.97456    0.00000     0.97456
      H   23    0.03000      0.00000     0.97000    0.00000     0.97000
      H   24    0.19104      0.00000     0.80896    0.00000     0.80896
      H   25    0.02120      0.00000     0.97880    0.00000     0.97880
      H   26    0.03476      0.00000     0.96524    0.00000     0.96524
      H   27    0.03238      0.00000     0.96762    0.00000     0.96762
      H   28    0.03577      0.00000     0.96423    0.00000     0.96423
      H   29    0.03485      0.00000     0.96515    0.00000     0.96515
      H   30    0.05154      0.00000     0.94846    0.00000     0.94846
      H   31    0.03337      0.00000     0.96663    0.00000     0.96663
 =======================================================================
   * Total *    0.00000     21.99954    66.00046    0.00000    88.00000

 Normal termination of Gaussian 09 at Tue Aug  3 16:35:01 2021.
