 Gaussian 09, Revision C.01,
 Gaussian 09:  EM64L-G09RevC.01 23-Sep-2011

 ------------------------
 # rhf/STO-3G nmr pop=nbo
 ------------------------

 99/9=1/99;
 -------
 comment
 -------
 Charge =  0 Multiplicity = 1

                         Standard orientation:
 ---------------------------------------------------------------------
 Center     Atomic      Atomic             Coordinates (Angstroms)
 Number     Number       Type             X           Y           Z
 ---------------------------------------------------------------------
      1          6           0       -3.317280   -0.557368    0.628684
      2          6           0       -2.109334   -0.222496   -0.244831
      3          6           0       -0.139873    1.342141   -0.536321
      4          6           0        0.077672   -1.108150   -1.177728
      5          6           0        0.840949    0.165771   -0.764058
      6          6           0       -1.161287   -1.419724   -0.339532
      7          6           0       -1.375588    1.005216    0.295074
      8          8           0        0.510150    2.464871    0.049104
      9          6           0        1.938188   -0.028521    0.331427
     10          6           0        3.080185   -0.924430   -0.175053
     11          6           0        1.459121   -0.558982    1.679860
     12          1           0       -3.014126   -0.798610    1.653221
     13          1           0       -4.011785    0.288253    0.671336
     14          1           0       -3.861533   -1.417705    0.225166
     15          1           0       -2.478239    0.008710   -1.253065
     16          1           0       -0.497233    1.670964   -1.521722
     17          1           0        0.736461   -1.981713   -1.190267
     18          1           0       -0.253373   -0.975058   -2.217160
     19          1           0        1.420902    0.463531   -1.652149
     20          1           0       -0.870518   -1.745641    0.663570
     21          1           0       -1.688008   -2.268492   -0.793536
     22          1           0       -1.108313    0.866422    1.347404
     23          1           0       -2.050354    1.871811    0.292480
     24          1           0        1.239330    2.720343   -0.541426
     25          1           0        2.395482    0.951506    0.519216
     26          1           0        2.764553   -1.965513   -0.291705
     27          1           0        3.460901   -0.569833   -1.138492
     28          1           0        3.917153   -0.913104    0.532203
     29          1           0        1.080771   -1.581673    1.604924
     30          1           0        0.689047    0.076389    2.118434
     31          1           0        2.291171   -0.580297    2.393599
 ---------------------------------------------------------------------

 SCF Done:  E(RHF) =  -459.613585289     A.U. after   10 cycles

      1  C    Isotropic =   221.0255   Anisotropy =    28.4224

      2  C    Isotropic =   215.4608   Anisotropy =     7.1377

      3  C    Isotropic =   188.0448   Anisotropy =    39.3026

      4  C    Isotropic =   219.3513   Anisotropy =    14.1237

      5  C    Isotropic =   210.8989   Anisotropy =    14.7626

      6  C    Isotropic =   217.4594   Anisotropy =    16.0977

      7  C    Isotropic =   217.2412   Anisotropy =    19.8158

      8  O    Isotropic =   359.9675   Anisotropy =    85.4528

      9  C    Isotropic =   214.9820   Anisotropy =    14.0046

     10  C    Isotropic =   220.4952   Anisotropy =    28.5872

     11  C    Isotropic =   223.1198   Anisotropy =    19.2650

     12  H    Isotropic =    32.6246   Anisotropy =    10.9804

     13  H    Isotropic =    32.3840   Anisotropy =    14.0417

     14  H    Isotropic =    32.4393   Anisotropy =    14.0116

     15  H    Isotropic =    32.8367   Anisotropy =    11.9928

     16  H    Isotropic =    31.8807   Anisotropy =    10.7052

     17  H    Isotropic =    32.4129   Anisotropy =    12.3261

     18  H    Isotropic =    32.6642   Anisotropy =    13.9067

     19  H    Isotropic =    32.7911   Anisotropy =    12.2487

     20  H    Isotropic =    32.8852   Anisotropy =     9.1641

     21  H    Isotropic =    32.5721   Anisotropy =    14.3425

     22  H    Isotropic =    32.4962   Anisotropy =     8.8174

     23  H    Isotropic =    32.0443   Anisotropy =    13.9219

     24  H    Isotropic =    34.8999   Anisotropy =    18.2920

     25  H    Isotropic =    32.3086   Anisotropy =    11.3591

     26  H    Isotropic =    32.5216   Anisotropy =     9.9776

     27  H    Isotropic =    32.7016   Anisotropy =    13.0957

     28  H    Isotropic =    32.4267   Anisotropy =    14.4627

     29  H    Isotropic =    32.8291   Anisotropy =     8.8305

     30  H    Isotropic =    32.4572   Anisotropy =     9.5568

     31  H    Isotropic =    32.5374   Anisotropy =    14.8924

 The electronic state is 1-A.
 Alpha  occ. eigenvalues --  -20.23976 -11.08499 -11.04673 -11.04642 -11.04264
 Alpha  occ. eigenvalues --  -11.03824 -11.03496 -11.03436 -11.03081 -11.03051
 Alpha  occ. eigenvalues --  -11.02734  -1.27942  -1.08150  -1.03571  -0.97023
 Alpha  occ. eigenvalues --   -0.94831  -0.89126  -0.87980  -0.79808  -0.77688
 Alpha  occ. eigenvalues --   -0.73926  -0.68951  -0.61578  -0.61214  -0.60218
 Alpha  occ. eigenvalues --   -0.56969  -0.56052  -0.54553  -0.53817  -0.52507
 Alpha  occ. eigenvalues --   -0.50889  -0.50230  -0.49107  -0.47693  -0.47140
 Alpha  occ. eigenvalues --   -0.46614  -0.42778  -0.42722  -0.42154  -0.41463
 Alpha  occ. eigenvalues --   -0.39587  -0.38386  -0.36656  -0.33153
 Alpha virt. eigenvalues --    0.52143   0.56470   0.58046   0.59156   0.60079
 Alpha virt. eigenvalues --    0.62243   0.62454   0.63392   0.64771   0.66197
 Alpha virt. eigenvalues --    0.68776   0.70017   0.70601   0.71576   0.72361

 Mulliken atomic charges:
              1
     1  C   -0.171401
     2  C   -0.022766
     3  C    0.077955
     4  C   -0.103123
     5  C   -0.043380
     6  C   -0.101727
     7  C   -0.107422
     8  O   -0.310827
     9  C   -0.020491
    10  C   -0.172757
    11  C   -0.176675
    12  H    0.054046
    13  H    0.054581
    14  H    0.053702
    15  H    0.045966
    16  H    0.037614
    17  H    0.053876
    18  H    0.047014
    19  H    0.039488
    20  H    0.051262
    21  H    0.049529
    22  H    0.057173
    23  H    0.056744
    24  H    0.176051
    25  H    0.052077
    26  H    0.052637
    27  H    0.050612
    28  H    0.054404
    29  H    0.052510
    30  H    0.059511
    31  H    0.053816
 Sum of Mulliken atomic charges =   0.00000

 Dipole moment (field-independent basis, Debye):
    X=              0.3486    Y=             -0.6688    Z=             -1.1694  Tot=              1.3915
 Quadrupole moment (field-independent basis, Debye-Ang):
   XX=            -66.4240   YY=            -70.1192   ZZ=            -66.9835
   XY=              1.4054   XZ=             -0.5064   YZ=             -2.9950

 Summary of Natural Population Analysis:

                                       Natural Population
                Natural  -----------------------------------------------
    Atom  No    Charge         Core      Valence    Rydberg      Total
 -----------------------------------------------------------------------
      C    1   -0.12646      1.99997     4.12648    0.00000     6.12646
      C    2    0.01588      1.99997     3.98415    0.00000     5.98412
      C    3    0.14556      1.99989     3.85455    0.00000     5.85444
      C    4   -0.06520      1.99995     4.06525    0.00000     6.06520
      C    5   -0.02147      1.99995     4.02152    0.00000     6.02147
      C    6   -0.06511      1.99996     4.06515    0.00000     6.06511
      C    7   -0.08487      1.99996     4.08491    0.00000     6.08487
      O    8   -0.33153      1.99999     6.33154    0.00000     8.33153
      C    9    0.02059      1.99996     3.97946    0.00000     5.97941
      C   10   -0.12782      1.99997     4.12785    0.00000     6.12782
      C   11   -0.13360      1.99997     4.13364    0.00000     6.13360
      H   12    0.03669      0.00000     0.96331    0.00000     0.96331
      H   13    0.03722      0.00000     0.96278    0.00000     0.96278
      H   14    0.03644      0.00000     0.96356    0.00000     0.96356
      H   15    0.02208      0.00000     0.97792    0.00000     0.97792
      H   16    0.00216      0.00000     0.99784    0.00000     0.99784
      H   17    0.03252      0.00000     0.96748    0.00000     0.96748
      H   18    0.02643      0.00000     0.97357    0.00000     0.97357
      H   19    0.01486      0.00000     0.98514    0.00000     0.98514
      H   20    0.02991      0.00000     0.97009    0.00000     0.97009
      H   21    0.02931      0.00000     0.97069    0.00000     0.97069
      H   22    0.03596      0.00000     0.96404    0.00000     0.96404
      H   23    0.03621      0.00000     0.96379    0.00000     0.96379
      H   24    0.18862      0.00000     0.81138    0.00000     0.81138
      H   25    0.02628      0.00000     0.97372    0.00000     0.97372
      H   26    0.03491      0.00000     0.96509    0.00000     0.96509
      H   27    0.03322      0.00000     0.96678    0.00000     0.96678
      H   28    0.03701      0.00000     0.96299    0.00000     0.96299
      H   29    0.03548      0.00000     0.96452    0.00000     0.96452
      H   30    0.04144      0.00000     0.95856    0.00000     0.95856
      H   31    0.03728      0.00000     0.96272    0.00000     0.96272
 =======================================================================
   * Total *    0.00000     21.99953    66.00047    0.00000    88.00000

 Normal termination of Gaussian 09 at Tue Aug  3 16:35:23 2021.
