 Gaussian 09, Revision C.01,
 Gaussian 09:  EM64L-G09RevC.01 23-Sep-2011

 ------------------------
 # rhf/STO-3G nmr pop=nbo
 ------------------------

 99/9=1/99;
 -------
 comment
 -------
 Charge =  0 Multiplicity = 1

                         Standard orientation:
 ---------------------------------------------------------------------
 Center     Atomic      Atomic             Coordinates (Angstroms)
 Number     Number       Type             X           Y           Z
 ---------------------------------------------------------------------
      1          6           0       -2.923860   -0.009257   -0.949297
      2          6           0       -2.333036    0.295253    0.429285
      3          6           0       -0.148583   -1.078323    0.390253
      4          6           0       -0.118582    1.374502   -0.252606
      5          6           0        0.689909    0.221587    0.380734
      6          6           0       -1.480564    1.566076    0.413954
      7          6           0       -1.536497   -0.881033    1.010753
      8          8           0       -0.272012   -1.585782   -0.935060
      9          6           0        2.073317    0.044772   -0.323391
     10          6           0        2.882979   -1.113907    0.273583
     11          6           0        2.927716    1.317892   -0.251629
     12          1           0       -3.516721   -0.929558   -0.922056
     13          1           0       -3.588892    0.802399   -1.264424
     14          1           0       -2.159443   -0.121543   -1.722120
     15          1           0       -3.186786    0.473999    1.096800
     16          1           0        0.368925   -1.844355    0.978183
     17          1           0       -0.247910    1.198477   -1.326980
     18          1           0        0.426036    2.319479   -0.153450
     19          1           0        0.878738    0.493722    1.429295
     20          1           0       -2.021328    2.379175   -0.085057
     21          1           0       -1.318267    1.893802    1.449216
     22          1           0       -2.124657   -1.801532    0.910685
     23          1           0       -1.406029   -0.704813    2.086692
     24          1           0       -0.781950   -2.412256   -0.887648
     25          1           0        1.907742   -0.178005   -1.385454
     26          1           0        3.004203   -0.995443    1.355557
     27          1           0        2.404183   -2.078893    0.083185
     28          1           0        3.881569   -1.165103   -0.174335
     29          1           0        3.044485    1.658804    0.782513
     30          1           0        2.487808    2.130875   -0.836339
     31          1           0        3.927592    1.141665   -0.663615
 ---------------------------------------------------------------------

 SCF Done:  E(RHF) =  -459.619625318     A.U. after   10 cycles

      1  C    Isotropic =   222.5031   Anisotropy =    24.7202

      2  C    Isotropic =   216.9060   Anisotropy =     3.4447

      3  C    Isotropic =   189.9961   Anisotropy =    37.0572

      4  C    Isotropic =   219.7091   Anisotropy =    16.1865

      5  C    Isotropic =   208.7616   Anisotropy =    16.6392

      6  C    Isotropic =   216.8404   Anisotropy =    11.8382

      7  C    Isotropic =   214.3993   Anisotropy =    10.9295

      8  O    Isotropic =   355.8315   Anisotropy =    96.7736

      9  C    Isotropic =   213.2368   Anisotropy =    16.8835

     10  C    Isotropic =   221.3417   Anisotropy =    24.6802

     11  C    Isotropic =   221.1638   Anisotropy =    25.8731

     12  H    Isotropic =    32.7507   Anisotropy =    13.5582

     13  H    Isotropic =    32.5762   Anisotropy =    14.7686

     14  H    Isotropic =    32.0411   Anisotropy =     7.2611

     15  H    Isotropic =    32.4736   Anisotropy =    15.2482

     16  H    Isotropic =    31.8842   Anisotropy =    10.1236

     17  H    Isotropic =    32.3858   Anisotropy =     9.2074

     18  H    Isotropic =    32.4037   Anisotropy =    13.0111

     19  H    Isotropic =    32.9271   Anisotropy =     9.2923

     20  H    Isotropic =    32.3969   Anisotropy =    14.5175

     21  H    Isotropic =    32.5703   Anisotropy =    13.1820

     22  H    Isotropic =    32.9063   Anisotropy =    13.1649

     23  H    Isotropic =    32.4827   Anisotropy =    12.9324

     24  H    Isotropic =    35.2647   Anisotropy =    18.8284

     25  H    Isotropic =    32.0703   Anisotropy =     9.3501

     26  H    Isotropic =    32.6743   Anisotropy =    11.2311

     27  H    Isotropic =    32.1298   Anisotropy =    10.4025

     28  H    Isotropic =    32.4690   Anisotropy =    14.3318

     29  H    Isotropic =    32.6610   Anisotropy =    11.3175

     30  H    Isotropic =    32.2719   Anisotropy =    11.1787

     31  H    Isotropic =    32.4700   Anisotropy =    14.2745

 The electronic state is 1-A.
 Alpha  occ. eigenvalues --  -20.23675 -11.08479 -11.04386 -11.04367 -11.04142
 Alpha  occ. eigenvalues --  -11.03800 -11.03277 -11.03038 -11.02593 -11.02497
 Alpha  occ. eigenvalues --  -11.02452  -1.27891  -1.07597  -1.03335  -0.96264
 Alpha  occ. eigenvalues --   -0.94989  -0.88409  -0.87901  -0.79364  -0.78166
 Alpha  occ. eigenvalues --   -0.72272  -0.68898  -0.63623  -0.59244  -0.58545
 Alpha  occ. eigenvalues --   -0.57302  -0.55908  -0.54668  -0.54137  -0.51264
 Alpha  occ. eigenvalues --   -0.50710  -0.50423  -0.49622  -0.48476  -0.45453
 Alpha  occ. eigenvalues --   -0.44881  -0.43646  -0.42255  -0.41907  -0.41415
 Alpha  occ. eigenvalues --   -0.39658  -0.38428  -0.35994  -0.32870
 Alpha virt. eigenvalues --    0.52875   0.56101   0.58377   0.59576   0.60777
 Alpha virt. eigenvalues --    0.61894   0.62981   0.64355   0.66359   0.68165
 Alpha virt. eigenvalues --    0.69017   0.70355   0.70903   0.71332   0.72163

 Mulliken atomic charges:
              1
     1  C   -0.177211
     2  C   -0.022492
     3  C    0.075833
     4  C   -0.102284
     5  C   -0.029220
     6  C   -0.099628
     7  C   -0.113281
     8  O   -0.316323
     9  C   -0.018233
    10  C   -0.173591
    11  C   -0.173617
    12  H    0.048814
    13  H    0.051413
    14  H    0.066151
    15  H    0.046878
    16  H    0.041174
    17  H    0.055312
    18  H    0.051573
    19  H    0.044992
    20  H    0.050477
    21  H    0.044789
    22  H    0.045647
    23  H    0.050532
    24  H    0.177165
    25  H    0.058083
    26  H    0.049058
    27  H    0.055931
    28  H    0.053322
    29  H    0.050408
    30  H    0.054465
    31  H    0.053863
 Sum of Mulliken atomic charges =   0.00000

 Dipole moment (field-independent basis, Debye):
    X=             -0.5091    Y=             -0.4659    Z=              1.0488  Tot=              1.2555
 Quadrupole moment (field-independent basis, Debye-Ang):
   XX=            -67.7357   YY=            -64.8798   ZZ=            -68.5450
   XY=              1.6724   XZ=              0.0210   YZ=             -0.7958

 Summary of Natural Population Analysis:

                                       Natural Population
                Natural  -----------------------------------------------
    Atom  No    Charge         Core      Valence    Rydberg      Total
 -----------------------------------------------------------------------
      C    1   -0.13281      1.99997     4.13284    0.00000     6.13281
      C    2    0.01546      1.99997     3.98457    0.00000     5.98454
      C    3    0.14345      1.99988     3.85667    0.00000     5.85655
      C    4   -0.06582      1.99996     4.06587    0.00000     6.06582
      C    5   -0.00581      1.99995     4.00586    0.00000     6.00581
      C    6   -0.06242      1.99996     4.06246    0.00000     6.06242
      C    7   -0.08921      1.99996     4.08925    0.00000     6.08921
      O    8   -0.33742      1.99999     6.33743    0.00000     8.33742
      C    9    0.02238      1.99996     3.97766    0.00000     5.97762
      C   10   -0.12935      1.99997     4.12938    0.00000     6.12935
      C   11   -0.12931      1.99997     4.12934    0.00000     6.12931
      H   12    0.03227      0.00000     0.96773    0.00000     0.96773
      H   13    0.03461      0.00000     0.96539    0.00000     0.96539
      H   14    0.04736      0.00000     0.95264    0.00000     0.95264
      H   15    0.02281      0.00000     0.97719    0.00000     0.97719
      H   16    0.00517      0.00000     0.99483    0.00000     0.99483
      H   17    0.03356      0.00000     0.96644    0.00000     0.96644
      H   18    0.03049      0.00000     0.96951    0.00000     0.96951
      H   19    0.01962      0.00000     0.98038    0.00000     0.98038
      H   20    0.02991      0.00000     0.97009    0.00000     0.97009
      H   21    0.02437      0.00000     0.97563    0.00000     0.97563
      H   22    0.02595      0.00000     0.97405    0.00000     0.97405
      H   23    0.03061      0.00000     0.96939    0.00000     0.96939
      H   24    0.18985      0.00000     0.81015    0.00000     0.81015
      H   25    0.03136      0.00000     0.96864    0.00000     0.96864
      H   26    0.03198      0.00000     0.96802    0.00000     0.96802
      H   27    0.03811      0.00000     0.96189    0.00000     0.96189
      H   28    0.03619      0.00000     0.96381    0.00000     0.96381
      H   29    0.03319      0.00000     0.96681    0.00000     0.96681
      H   30    0.03680      0.00000     0.96320    0.00000     0.96320
      H   31    0.03667      0.00000     0.96333    0.00000     0.96333
 =======================================================================
   * Total *    0.00000     21.99954    66.00046    0.00000    88.00000

 Normal termination of Gaussian 09 at Sun May 24 02:07:40 2020.
