 Gaussian 09, Revision C.01,
 Gaussian 09:  EM64L-G09RevC.01 23-Sep-2011

 ------------------------
 # rhf/STO-3G nmr pop=nbo
 ------------------------

 99/9=1/99;
 -------
 comment
 -------
 Charge =  0 Multiplicity = 1

                         Standard orientation:
 ---------------------------------------------------------------------
 Center     Atomic      Atomic             Coordinates (Angstroms)
 Number     Number       Type             X           Y           Z
 ---------------------------------------------------------------------
      1          6           0       -3.328191   -0.141646   -0.659338
      2          6           0       -2.274712    0.419983    0.297469
      3          6           0       -0.158497   -1.021449    0.524210
      4          6           0        0.008385    1.533265    0.278892
      5          6           0        0.781157    0.213204    0.539847
      6          6           0       -1.316536    1.354282   -0.452082
      7          6           0       -1.548506   -0.695080    1.070522
      8          8           0       -0.283031   -1.611016   -0.766743
      9          6           0        2.050123    0.053002   -0.354884
     10          6           0        2.783417   -1.270510   -0.086262
     11          6           0        3.059590    1.192831   -0.141915
     12          1           0       -3.860175    0.669226   -1.168330
     13          1           0       -2.877187   -0.782556   -1.423603
     14          1           0       -4.069962   -0.735555   -0.114862
     15          1           0       -2.816826    1.020391    1.041101
     16          1           0        0.278863   -1.796606    1.164682
     17          1           0        0.608276    2.259117   -0.274966
     18          1           0       -0.201522    2.003791    1.249291
     19          1           0        1.146305    0.299819    1.574934
     20          1           0       -1.123263    0.995017   -1.469265
     21          1           0       -1.797637    2.333152   -0.573927
     22          1           0       -2.164343   -1.602594    1.087757
     23          1           0       -1.437848   -0.376099    2.115503
     24          1           0       -0.426228   -0.912083   -1.423025
     25          1           0        1.747249    0.066745   -1.409425
     26          1           0        3.701868   -1.334152   -0.680418
     27          1           0        3.059316   -1.360332    0.970033
     28          1           0        2.175878   -2.138895   -0.354168
     29          1           0        3.335096    1.283858    0.914296
     30          1           0        2.672037    2.157757   -0.477320
     31          1           0        3.976970    1.010825   -0.713087
 ---------------------------------------------------------------------

 SCF Done:  E(RHF) =  -459.606945877     A.U. after   10 cycles

      1  C    Isotropic =   220.0332   Anisotropy =    27.7658

      2  C    Isotropic =   217.0863   Anisotropy =     7.7170

      3  C    Isotropic =   189.5386   Anisotropy =    37.1166

      4  C    Isotropic =   219.5151   Anisotropy =    15.5978

      5  C    Isotropic =   210.0921   Anisotropy =    19.8332

      6  C    Isotropic =   218.4515   Anisotropy =    19.4494

      7  C    Isotropic =   216.6874   Anisotropy =    11.9451

      8  O    Isotropic =   362.3501   Anisotropy =    71.8480

      9  C    Isotropic =   214.0456   Anisotropy =    14.3880

     10  C    Isotropic =   221.2802   Anisotropy =    25.9302

     11  C    Isotropic =   221.1364   Anisotropy =    26.8769

     12  H    Isotropic =    32.5096   Anisotropy =    13.9464

     13  H    Isotropic =    32.6484   Anisotropy =     9.1653

     14  H    Isotropic =    32.3865   Anisotropy =    14.3518

     15  H    Isotropic =    32.4282   Anisotropy =    14.1141

     16  H    Isotropic =    31.2734   Anisotropy =    11.1638

     17  H    Isotropic =    32.5932   Anisotropy =    12.4464

     18  H    Isotropic =    32.5351   Anisotropy =    13.2137

     19  H    Isotropic =    32.5745   Anisotropy =    10.9731

     20  H    Isotropic =    33.5364   Anisotropy =     8.8096

     21  H    Isotropic =    32.4223   Anisotropy =    14.5224

     22  H    Isotropic =    32.1067   Anisotropy =    13.5497

     23  H    Isotropic =    32.4307   Anisotropy =    13.3169

     24  H    Isotropic =    35.1869   Anisotropy =    10.4910

     25  H    Isotropic =    32.7992   Anisotropy =     8.6481

     26  H    Isotropic =    32.4920   Anisotropy =    14.4305

     27  H    Isotropic =    32.5999   Anisotropy =    11.7246

     28  H    Isotropic =    31.8366   Anisotropy =     9.9863

     29  H    Isotropic =    32.6540   Anisotropy =    11.7391

     30  H    Isotropic =    32.4270   Anisotropy =    11.2007

     31  H    Isotropic =    32.4796   Anisotropy =    14.1469

 The electronic state is 1-A.
 Alpha  occ. eigenvalues --  -20.23531 -11.08516 -11.04952 -11.04709 -11.04393
 Alpha  occ. eigenvalues --  -11.04202 -11.03875 -11.03442 -11.03165 -11.03153
 Alpha  occ. eigenvalues --  -11.02548  -1.27859  -1.07953  -1.03813  -0.97026
 Alpha  occ. eigenvalues --   -0.95534  -0.88637  -0.88000  -0.79849  -0.78759
 Alpha  occ. eigenvalues --   -0.73613  -0.68665  -0.64039  -0.60838  -0.59332
 Alpha  occ. eigenvalues --   -0.56460  -0.54816  -0.54592  -0.53931  -0.52646
 Alpha  occ. eigenvalues --   -0.51613  -0.50300  -0.49903  -0.48224  -0.47058
 Alpha  occ. eigenvalues --   -0.46058  -0.43395  -0.42916  -0.42639  -0.42204
 Alpha  occ. eigenvalues --   -0.39446  -0.38968  -0.35914  -0.32719
 Alpha virt. eigenvalues --    0.51968   0.56115   0.56875   0.59051   0.59578
 Alpha virt. eigenvalues --    0.61050   0.61644   0.63478   0.63852   0.65749
 Alpha virt. eigenvalues --    0.68143   0.69636   0.71156   0.71370   0.71925

 Mulliken atomic charges:
              1
     1  C   -0.171796
     2  C   -0.027786
     3  C    0.076245
     4  C   -0.107470
     5  C   -0.044998
     6  C   -0.104041
     7  C   -0.113624
     8  O   -0.317737
     9  C   -0.018000
    10  C   -0.176091
    11  C   -0.173262
    12  H    0.052575
    13  H    0.054615
    14  H    0.054877
    15  H    0.048409
    16  H    0.058621
    17  H    0.054882
    18  H    0.048961
    19  H    0.047477
    20  H    0.039357
    21  H    0.053864
    22  H    0.060103
    23  H    0.049223
    24  H    0.179997
    25  H    0.043937
    26  H    0.052906
    27  H    0.050253
    28  H    0.066935
    29  H    0.053076
    30  H    0.052923
    31  H    0.055568
 Sum of Mulliken atomic charges =   0.00000

 Dipole moment (field-independent basis, Debye):
    X=             -0.0835    Y=              1.4982    Z=              0.3445  Tot=              1.5395
 Quadrupole moment (field-independent basis, Debye-Ang):
   XX=            -67.8258   YY=            -71.4990   ZZ=            -65.9142
   XY=             -0.5803   XZ=             -0.1801   YZ=             -1.7648

 Summary of Natural Population Analysis:

                                       Natural Population
                Natural  -----------------------------------------------
    Atom  No    Charge         Core      Valence    Rydberg      Total
 -----------------------------------------------------------------------
      C    1   -0.12672      1.99997     4.12675    0.00000     6.12672
      C    2    0.01047      1.99997     3.98956    0.00000     5.98953
      C    3    0.14314      1.99989     3.85697    0.00000     5.85686
      C    4   -0.07054      1.99995     4.07059    0.00000     6.07054
      C    5   -0.02279      1.99995     4.02284    0.00000     6.02279
      C    6   -0.06594      1.99996     4.06598    0.00000     6.06594
      C    7   -0.09159      1.99996     4.09163    0.00000     6.09159
      O    8   -0.33854      1.99999     6.33855    0.00000     8.33854
      C    9    0.02473      1.99996     3.97531    0.00000     5.97527
      C   10   -0.13233      1.99997     4.13237    0.00000     6.13233
      C   11   -0.12875      1.99997     4.12878    0.00000     6.12875
      H   12    0.03525      0.00000     0.96475    0.00000     0.96475
      H   13    0.03695      0.00000     0.96305    0.00000     0.96305
      H   14    0.03746      0.00000     0.96254    0.00000     0.96254
      H   15    0.02435      0.00000     0.97565    0.00000     0.97565
      H   16    0.02304      0.00000     0.97696    0.00000     0.97696
      H   17    0.03330      0.00000     0.96670    0.00000     0.96670
      H   18    0.02833      0.00000     0.97167    0.00000     0.97167
      H   19    0.02245      0.00000     0.97755    0.00000     0.97755
      H   20    0.01956      0.00000     0.98044    0.00000     0.98044
      H   21    0.03355      0.00000     0.96645    0.00000     0.96645
      H   22    0.03929      0.00000     0.96071    0.00000     0.96071
      H   23    0.02957      0.00000     0.97043    0.00000     0.97043
      H   24    0.19188      0.00000     0.80812    0.00000     0.80812
      H   25    0.01835      0.00000     0.98165    0.00000     0.98165
      H   26    0.03579      0.00000     0.96421    0.00000     0.96421
      H   27    0.03316      0.00000     0.96684    0.00000     0.96684
      H   28    0.04775      0.00000     0.95225    0.00000     0.95225
      H   29    0.03558      0.00000     0.96442    0.00000     0.96442
      H   30    0.03509      0.00000     0.96491    0.00000     0.96491
      H   31    0.03816      0.00000     0.96184    0.00000     0.96184
 =======================================================================
   * Total *    0.00000     21.99954    66.00046    0.00000    88.00000

 Normal termination of Gaussian 09 at Tue Aug  3 16:36:10 2021.
