 Gaussian 09, Revision C.01,
 Gaussian 09:  EM64L-G09RevC.01 23-Sep-2011

 ------------------------
 # rhf/STO-3G nmr pop=nbo
 ------------------------

 99/9=1/99;
 -------
 comment
 -------
 Charge =  0 Multiplicity = 1

                         Standard orientation:
 ---------------------------------------------------------------------
 Center     Atomic      Atomic             Coordinates (Angstroms)
 Number     Number       Type             X           Y           Z
 ---------------------------------------------------------------------
      1          6           0       -3.046756   -0.546575    1.078196
      2          6           0       -2.278003   -0.070159   -0.155417
      3          6           0       -0.140872    1.167545   -0.733987
      4          6           0       -0.102795   -1.369544   -0.383570
      5          6           0        0.736140   -0.113648   -0.716283
      6          6           0       -1.549760   -1.234576   -0.850021
      7          6           0       -1.328830    1.079378    0.222236
      8          8           0        0.612739    2.349900   -0.501496
      9          6           0        2.059112   -0.022929    0.102637
     10          6           0        2.968310   -1.227983   -0.175548
     11          6           0        1.870553    0.121556    1.615561
     12          1           0       -2.374014   -0.982870    1.824172
     13          1           0       -3.581006    0.286311    1.547581
     14          1           0       -3.787045   -1.306062    0.805318
     15          1           0       -3.020126    0.317258   -0.866302
     16          1           0       -0.544862    1.279311   -1.748794
     17          1           0       -0.104464   -1.570768    0.692446
     18          1           0        0.348057   -2.246134   -0.863907
     19          1           0        1.061132   -0.233093   -1.761838
     20          1           0       -2.084647   -2.178154   -0.690411
     21          1           0       -1.552948   -1.062973   -1.934477
     22          1           0       -0.963339    0.959924    1.249379
     23          1           0       -1.880511    2.028154    0.225854
     24          1           0        0.718491    2.465020    0.456832
     25          1           0        2.607652    0.861967   -0.245812
     26          1           0        2.540612   -2.157988    0.212640
     27          1           0        3.137426   -1.350413   -1.250460
     28          1           0        3.945991   -1.089410    0.299015
     29          1           0        1.406975   -0.764348    2.059285
     30          1           0        1.260545    0.989577    1.873037
     31          1           0        2.841572    0.257101    2.105586
 ---------------------------------------------------------------------

 SCF Done:  E(RHF) =  -459.608958270     A.U. after   10 cycles

      1  C    Isotropic =   221.0616   Anisotropy =    26.4311

      2  C    Isotropic =   216.3623   Anisotropy =     9.1302

      3  C    Isotropic =   189.1693   Anisotropy =    42.5331

      4  C    Isotropic =   220.6158   Anisotropy =    14.0602

      5  C    Isotropic =   210.3898   Anisotropy =    16.2451

      6  C    Isotropic =   217.4945   Anisotropy =    13.8602

      7  C    Isotropic =   214.8610   Anisotropy =    24.1967

      8  O    Isotropic =   360.7255   Anisotropy =    75.7199

      9  C    Isotropic =   215.1381   Anisotropy =    12.9457

     10  C    Isotropic =   220.8799   Anisotropy =    27.3347

     11  C    Isotropic =   223.9489   Anisotropy =    20.5964

     12  H    Isotropic =    32.6754   Anisotropy =     9.3183

     13  H    Isotropic =    32.4987   Anisotropy =    13.6911

     14  H    Isotropic =    32.5509   Anisotropy =    14.4141

     15  H    Isotropic =    32.3409   Anisotropy =    14.4291

     16  H    Isotropic =    31.3113   Anisotropy =    10.7515

     17  H    Isotropic =    32.9135   Anisotropy =     7.9896

     18  H    Isotropic =    32.5361   Anisotropy =    13.6515

     19  H    Isotropic =    32.0289   Anisotropy =    12.1130

     20  H    Isotropic =    32.6163   Anisotropy =    13.8864

     21  H    Isotropic =    32.4910   Anisotropy =    13.0743

     22  H    Isotropic =    33.3205   Anisotropy =     7.2553

     23  H    Isotropic =    32.2081   Anisotropy =    13.6296

     24  H    Isotropic =    35.0920   Anisotropy =    13.4115

     25  H    Isotropic =    31.9756   Anisotropy =    11.7155

     26  H    Isotropic =    32.5977   Anisotropy =     9.6429

     27  H    Isotropic =    32.4626   Anisotropy =    13.2735

     28  H    Isotropic =    32.4557   Anisotropy =    14.5693

     29  H    Isotropic =    32.7768   Anisotropy =     9.2903

     30  H    Isotropic =    33.3626   Anisotropy =     9.8101

     31  H    Isotropic =    32.6208   Anisotropy =    14.6645

 The electronic state is 1-A.
 Alpha  occ. eigenvalues --  -20.23970 -11.08448 -11.04858 -11.04746 -11.03857
 Alpha  occ. eigenvalues --  -11.03835 -11.03730 -11.03636 -11.03550 -11.03368
 Alpha  occ. eigenvalues --  -11.03059  -1.27987  -1.08283  -1.03786  -0.96937
 Alpha  occ. eigenvalues --   -0.94759  -0.89320  -0.88019  -0.81232  -0.78306
 Alpha  occ. eigenvalues --   -0.72876  -0.68142  -0.63906  -0.60774  -0.59603
 Alpha  occ. eigenvalues --   -0.58042  -0.55763  -0.54896  -0.52596  -0.52373
 Alpha  occ. eigenvalues --   -0.51505  -0.49793  -0.49566  -0.48602  -0.47450
 Alpha  occ. eigenvalues --   -0.46210  -0.45202  -0.43008  -0.42248  -0.41152
 Alpha  occ. eigenvalues --   -0.40045  -0.38509  -0.36103  -0.32649
 Alpha virt. eigenvalues --    0.52881   0.54966   0.57274   0.59085   0.60285
 Alpha virt. eigenvalues --    0.60816   0.62228   0.63727   0.65345   0.66428
 Alpha virt. eigenvalues --    0.67144   0.68079   0.70457   0.71195   0.71530

 Mulliken atomic charges:
              1
     1  C   -0.170858
     2  C   -0.023847
     3  C    0.076004
     4  C   -0.104198
     5  C   -0.041278
     6  C   -0.101798
     7  C   -0.117142
     8  O   -0.312211
     9  C   -0.022697
    10  C   -0.172435
    11  C   -0.176026
    12  H    0.051793
    13  H    0.053874
    14  H    0.053893
    15  H    0.049087
    16  H    0.055926
    17  H    0.047073
    18  H    0.052138
    19  H    0.046955
    20  H    0.052610
    21  H    0.047692
    22  H    0.045076
    23  H    0.055737
    24  H    0.179505
    25  H    0.058562
    26  H    0.053219
    27  H    0.054068
    28  H    0.054023
    29  H    0.054791
    30  H    0.043940
    31  H    0.056523
 Sum of Mulliken atomic charges =   0.00000

 Dipole moment (field-independent basis, Debye):
    X=             -0.4793    Y=             -0.9255    Z=              0.9508  Tot=              1.4108
 Quadrupole moment (field-independent basis, Debye-Ang):
   XX=            -67.6813   YY=            -71.1210   ZZ=            -67.3274
   XY=             -1.1729   XZ=              1.4961   YZ=              3.3033

 Summary of Natural Population Analysis:

                                       Natural Population
                Natural  -----------------------------------------------
    Atom  No    Charge         Core      Valence    Rydberg      Total
 -----------------------------------------------------------------------
      C    1   -0.12591      1.99997     4.12593    0.00000     6.12591
      C    2    0.01560      1.99996     3.98444    0.00000     5.98440
      C    3    0.14179      1.99989     3.85832    0.00000     5.85821
      C    4   -0.06651      1.99996     4.06655    0.00000     6.06651
      C    5   -0.02037      1.99995     4.02042    0.00000     6.02037
      C    6   -0.06433      1.99996     4.06437    0.00000     6.06433
      C    7   -0.09326      1.99996     4.09329    0.00000     6.09326
      O    8   -0.33248      1.99999     6.33249    0.00000     8.33248
      C    9    0.01792      1.99996     3.98212    0.00000     5.98208
      C   10   -0.12784      1.99997     4.12787    0.00000     6.12784
      C   11   -0.13136      1.99997     4.13139    0.00000     6.13136
      H   12    0.03447      0.00000     0.96553    0.00000     0.96553
      H   13    0.03646      0.00000     0.96354    0.00000     0.96354
      H   14    0.03645      0.00000     0.96355    0.00000     0.96355
      H   15    0.02445      0.00000     0.97555    0.00000     0.97555
      H   16    0.02065      0.00000     0.97935    0.00000     0.97935
      H   17    0.02578      0.00000     0.97422    0.00000     0.97422
      H   18    0.03129      0.00000     0.96871    0.00000     0.96871
      H   19    0.02143      0.00000     0.97857    0.00000     0.97857
      H   20    0.03188      0.00000     0.96812    0.00000     0.96812
      H   21    0.02693      0.00000     0.97307    0.00000     0.97307
      H   22    0.02490      0.00000     0.97510    0.00000     0.97510
      H   23    0.03519      0.00000     0.96481    0.00000     0.96481
      H   24    0.19167      0.00000     0.80833    0.00000     0.80833
      H   25    0.03230      0.00000     0.96770    0.00000     0.96770
      H   26    0.03552      0.00000     0.96448    0.00000     0.96448
      H   27    0.03651      0.00000     0.96349    0.00000     0.96349
      H   28    0.03665      0.00000     0.96335    0.00000     0.96335
      H   29    0.03742      0.00000     0.96258    0.00000     0.96258
      H   30    0.02734      0.00000     0.97266    0.00000     0.97266
      H   31    0.03944      0.00000     0.96056    0.00000     0.96056
 =======================================================================
   * Total *    0.00000     21.99954    66.00046    0.00000    88.00000

 Normal termination of Gaussian 09 at Tue Aug  3 16:35:48 2021.
