 Gaussian 09, Revision C.01,
 Gaussian 09:  EM64L-G09RevC.01 23-Sep-2011

 ------------------------
 # rhf/STO-3G nmr pop=nbo
 ------------------------

 99/9=1/99;
 -------
 comment
 -------
 Charge =  0 Multiplicity = 1

                         Standard orientation:
 ---------------------------------------------------------------------
 Center     Atomic      Atomic             Coordinates (Angstroms)
 Number     Number       Type             X           Y           Z
 ---------------------------------------------------------------------
      1          6           0       -3.044102   -0.556164    1.074463
      2          6           0       -2.275596   -0.038958   -0.142721
      3          6           0       -0.125278    1.191487   -0.684970
      4          6           0       -0.122936   -1.358642   -0.441300
      5          6           0        0.733198   -0.101640   -0.723440
      6          6           0       -1.570240   -1.182913   -0.891686
      7          6           0       -1.304598    1.076519    0.277691
      8          8           0        0.639222    2.344823   -0.361034
      9          6           0        2.053349   -0.061911    0.105298
     10          6           0        2.901314   -1.319560   -0.125603
     11          6           0        1.854325    0.147217    1.609035
     12          1           0       -3.798421   -1.291090    0.774137
     13          1           0       -2.373842   -1.035235    1.796036
     14          1           0       -3.561648    0.263988    1.583325
     15          1           0       -3.015581    0.391046   -0.830969
     16          1           0       -0.534029    1.367863   -1.688962
     17          1           0       -0.118003   -1.607392    0.625156
     18          1           0        0.311769   -2.219338   -0.963684
     19          1           0        1.060718   -0.184998   -1.771515
     20          1           0       -2.118280   -2.124466   -0.769174
     21          1           0       -1.577414   -0.964500   -1.967675
     22          1           0       -0.931637    0.905628    1.294937
     23          1           0       -1.842002    2.032134    0.330872
     24          1           0        1.310912    2.453687   -1.055661
     25          1           0        2.652016    0.781477   -0.263195
     26          1           0        2.430951   -2.211568    0.300514
     27          1           0        3.061009   -1.492143   -1.195053
     28          1           0        3.885869   -1.209927    0.342291
     29          1           0        1.278800   -0.663611    2.064716
     30          1           0        1.345001    1.090502    1.822264
     31          1           0        2.823421    0.186746    2.119315
 ---------------------------------------------------------------------

 SCF Done:  E(RHF) =  -459.610053094     A.U. after   10 cycles

      1  C    Isotropic =   221.0010   Anisotropy =    26.6193

      2  C    Isotropic =   216.2916   Anisotropy =     9.0076

      3  C    Isotropic =   188.2219   Anisotropy =    42.2258

      4  C    Isotropic =   220.4029   Anisotropy =    14.0311

      5  C    Isotropic =   210.1260   Anisotropy =    15.5456

      6  C    Isotropic =   217.5096   Anisotropy =    13.9114

      7  C    Isotropic =   216.6632   Anisotropy =    21.1400

      8  O    Isotropic =   362.8763   Anisotropy =    79.7011

      9  C    Isotropic =   214.6967   Anisotropy =    12.1953

     10  C    Isotropic =   221.2281   Anisotropy =    26.1598

     11  C    Isotropic =   224.2048   Anisotropy =    20.1899

     12  H    Isotropic =    32.5308   Anisotropy =    14.4391

     13  H    Isotropic =    32.5621   Anisotropy =     9.4375

     14  H    Isotropic =    32.3793   Anisotropy =    13.8273

     15  H    Isotropic =    32.3744   Anisotropy =    14.2765

     16  H    Isotropic =    31.8517   Anisotropy =    10.0372

     17  H    Isotropic =    32.7609   Anisotropy =     8.1532

     18  H    Isotropic =    32.5735   Anisotropy =    13.4397

     19  H    Isotropic =    32.5494   Anisotropy =    11.6394

     20  H    Isotropic =    32.6130   Anisotropy =    13.8939

     21  H    Isotropic =    32.5895   Anisotropy =    12.8516

     22  H    Isotropic =    32.5349   Anisotropy =     7.8646

     23  H    Isotropic =    31.9158   Anisotropy =    14.0314

     24  H    Isotropic =    34.7813   Anisotropy =    18.2171

     25  H    Isotropic =    32.4963   Anisotropy =    11.8770

     26  H    Isotropic =    32.5846   Anisotropy =     9.6351

     27  H    Isotropic =    32.6401   Anisotropy =    12.8716

     28  H    Isotropic =    32.4810   Anisotropy =    14.6044

     29  H    Isotropic =    32.7481   Anisotropy =     9.4496

     30  H    Isotropic =    32.1578   Anisotropy =     9.4814

     31  H    Isotropic =    32.5966   Anisotropy =    14.8149

 The electronic state is 1-A.
 Alpha  occ. eigenvalues --  -20.24061 -11.08456 -11.04763 -11.04579 -11.04079
 Alpha  occ. eigenvalues --  -11.03656 -11.03621 -11.03389 -11.03089 -11.03077
 Alpha  occ. eigenvalues --  -11.02494  -1.28032  -1.08161  -1.03535  -0.96688
 Alpha  occ. eigenvalues --   -0.94596  -0.88692  -0.87883  -0.80862  -0.77971
 Alpha  occ. eigenvalues --   -0.72746  -0.67209  -0.63688  -0.62017  -0.58793
 Alpha  occ. eigenvalues --   -0.57883  -0.55409  -0.54774  -0.54124  -0.51727
 Alpha  occ. eigenvalues --   -0.50355  -0.49554  -0.48909  -0.47891  -0.47710
 Alpha  occ. eigenvalues --   -0.46482  -0.42884  -0.42677  -0.42031  -0.41465
 Alpha  occ. eigenvalues --   -0.39691  -0.38238  -0.36549  -0.33022
 Alpha virt. eigenvalues --    0.52115   0.55999   0.57665   0.59389   0.60449
 Alpha virt. eigenvalues --    0.61411   0.61986   0.64932   0.65554   0.66894
 Alpha virt. eigenvalues --    0.67077   0.69044   0.70886   0.71532   0.72042

 Mulliken atomic charges:
              1
     1  C   -0.170550
     2  C   -0.024253
     3  C    0.077650
     4  C   -0.102600
     5  C   -0.043012
     6  C   -0.101747
     7  C   -0.108089
     8  O   -0.311166
     9  C   -0.017094
    10  C   -0.173118
    11  C   -0.177401
    12  H    0.052939
    13  H    0.052410
    14  H    0.054752
    15  H    0.047716
    16  H    0.037789
    17  H    0.049273
    18  H    0.051597
    19  H    0.038584
    20  H    0.052467
    21  H    0.046110
    22  H    0.056001
    23  H    0.058747
    24  H    0.177604
    25  H    0.045685
    26  H    0.054573
    27  H    0.051172
    28  H    0.054583
    29  H    0.050454
    30  H    0.065919
    31  H    0.053005
 Sum of Mulliken atomic charges =   0.00000

 Dipole moment (field-independent basis, Debye):
    X=              0.1676    Y=             -0.8313    Z=             -1.0793  Tot=              1.3726
 Quadrupole moment (field-independent basis, Debye-Ang):
   XX=            -66.3865   YY=            -71.0075   ZZ=            -66.0870
   XY=              0.6873   XZ=             -1.2109   YZ=             -2.4151

 Summary of Natural Population Analysis:

                                       Natural Population
                Natural  -----------------------------------------------
    Atom  No    Charge         Core      Valence    Rydberg      Total
 -----------------------------------------------------------------------
      C    1   -0.12556      1.99997     4.12559    0.00000     6.12556
      C    2    0.01504      1.99996     3.98499    0.00000     5.98496
      C    3    0.14513      1.99989     3.85498    0.00000     5.85487
      C    4   -0.06486      1.99996     4.06491    0.00000     6.06486
      C    5   -0.02113      1.99995     4.02118    0.00000     6.02113
      C    6   -0.06433      1.99996     4.06437    0.00000     6.06433
      C    7   -0.08523      1.99996     4.08527    0.00000     6.08523
      O    8   -0.33183      1.99999     6.33183    0.00000     8.33183
      C    9    0.02439      1.99996     3.97566    0.00000     5.97561
      C   10   -0.12886      1.99997     4.12889    0.00000     6.12886
      C   11   -0.13413      1.99997     4.13417    0.00000     6.13413
      H   12    0.03556      0.00000     0.96444    0.00000     0.96444
      H   13    0.03503      0.00000     0.96497    0.00000     0.96497
      H   14    0.03727      0.00000     0.96273    0.00000     0.96273
      H   15    0.02319      0.00000     0.97681    0.00000     0.97681
      H   16    0.00242      0.00000     0.99758    0.00000     0.99758
      H   17    0.02784      0.00000     0.97216    0.00000     0.97216
      H   18    0.03072      0.00000     0.96928    0.00000     0.96928
      H   19    0.01349      0.00000     0.98651    0.00000     0.98651
      H   20    0.03178      0.00000     0.96822    0.00000     0.96822
      H   21    0.02553      0.00000     0.97447    0.00000     0.97447
      H   22    0.03473      0.00000     0.96527    0.00000     0.96527
      H   23    0.03792      0.00000     0.96208    0.00000     0.96208
      H   24    0.19028      0.00000     0.80972    0.00000     0.80972
      H   25    0.02051      0.00000     0.97949    0.00000     0.97949
      H   26    0.03687      0.00000     0.96313    0.00000     0.96313
      H   27    0.03388      0.00000     0.96612    0.00000     0.96612
      H   28    0.03725      0.00000     0.96275    0.00000     0.96275
      H   29    0.03349      0.00000     0.96651    0.00000     0.96651
      H   30    0.04731      0.00000     0.95269    0.00000     0.95269
      H   31    0.03631      0.00000     0.96369    0.00000     0.96369
 =======================================================================
   * Total *    0.00000     21.99954    66.00046    0.00000    88.00000

 Normal termination of Gaussian 09 at Tue Aug  3 16:35:52 2021.
