 Gaussian 09, Revision C.01,
 Gaussian 09:  EM64L-G09RevC.01 23-Sep-2011

 ------------------------
 # rhf/STO-3G nmr pop=nbo
 ------------------------

 99/9=1/99;
 -------
 comment
 -------
 Charge =  0 Multiplicity = 1

                         Standard orientation:
 ---------------------------------------------------------------------
 Center     Atomic      Atomic             Coordinates (Angstroms)
 Number     Number       Type             X           Y           Z
 ---------------------------------------------------------------------
      1          6           0        3.648844    0.254055   -0.444968
      2          6           0        2.123928    0.312942   -0.510989
      3          6           0        0.061680   -1.160777   -0.034285
      4          6           0        0.033896    1.314660    0.512701
      5          6           0       -0.679390    0.173738   -0.253965
      6          6           0        1.551401    1.146499    0.632734
      7          6           0        1.521801   -1.103082   -0.512445
      8          8           0        0.060434   -1.504236    1.351908
      9          6           0       -2.195945    0.128213    0.108365
     10          6           0       -2.935619   -1.004534   -0.612860
     11          6           0       -2.895729    1.454826   -0.220158
     12          1           0        4.050542   -0.333551   -1.277174
     13          1           0        4.078745    1.259406   -0.505709
     14          1           0        3.990105   -0.202852    0.490156
     15          1           0        1.856047    0.802375   -1.457370
     16          1           0       -0.423614   -1.984008   -0.567899
     17          1           0       -0.379934    1.423516    1.523001
     18          1           0       -0.169023    2.260503   -0.005634
     19          1           0       -0.610595    0.402689   -1.327666
     20          1           0        1.787514    0.666070    1.591182
     21          1           0        2.020880    2.137177    0.664322
     22          1           0        2.132993   -1.776579    0.101949
     23          1           0        1.575787   -1.482929   -1.540993
     24          1           0       -0.857356   -1.693088    1.609312
     25          1           0       -2.302729   -0.039194    1.187699
     26          1           0       -2.781704   -0.951892   -1.695841
     27          1           0       -2.602957   -1.986311   -0.263549
     28          1           0       -4.013221   -0.951334   -0.422190
     29          1           0       -2.779774    1.711525   -1.278576
     30          1           0       -2.496491    2.279227    0.378174
     31          1           0       -3.967891    1.393891   -0.003238
 ---------------------------------------------------------------------

 SCF Done:  E(RHF) =  -459.613198897     A.U. after   10 cycles

      1  C    Isotropic =   221.1390   Anisotropy =    27.8799

      2  C    Isotropic =   216.7747   Anisotropy =     8.5128

      3  C    Isotropic =   189.7290   Anisotropy =    34.8885

      4  C    Isotropic =   217.1369   Anisotropy =    18.0548

      5  C    Isotropic =   210.5028   Anisotropy =    18.5162

      6  C    Isotropic =   217.4752   Anisotropy =    17.3682

      7  C    Isotropic =   214.2307   Anisotropy =    21.5860

      8  O    Isotropic =   363.3443   Anisotropy =    79.8407

      9  C    Isotropic =   213.3738   Anisotropy =    17.0089

     10  C    Isotropic =   222.1077   Anisotropy =    24.1597

     11  C    Isotropic =   221.2227   Anisotropy =    25.7387

     12  H    Isotropic =    32.3770   Anisotropy =    13.6446

     13  H    Isotropic =    32.4635   Anisotropy =    14.0283

     14  H    Isotropic =    32.5569   Anisotropy =    11.7473

     15  H    Isotropic =    32.7428   Anisotropy =    10.6478

     16  H    Isotropic =    31.8353   Anisotropy =     9.9283

     17  H    Isotropic =    32.3740   Anisotropy =    10.8981

     18  H    Isotropic =    32.2530   Anisotropy =    12.0809

     19  H    Isotropic =    32.8753   Anisotropy =     8.4902

     20  H    Isotropic =    32.2399   Anisotropy =    10.8057

     21  H    Isotropic =    32.4221   Anisotropy =    14.1778

     22  H    Isotropic =    32.0429   Anisotropy =    11.8622

     23  H    Isotropic =    32.1585   Anisotropy =    13.1348

     24  H    Isotropic =    34.7681   Anisotropy =    17.0367

     25  H    Isotropic =    32.9413   Anisotropy =     9.5862

     26  H    Isotropic =    32.7243   Anisotropy =    11.2180

     27  H    Isotropic =    32.7126   Anisotropy =    10.9316

     28  H    Isotropic =    32.6074   Anisotropy =    14.1817

     29  H    Isotropic =    32.6612   Anisotropy =    11.2379

     30  H    Isotropic =    32.3236   Anisotropy =    11.0057

     31  H    Isotropic =    32.5515   Anisotropy =    14.2597

 The electronic state is 1-A.
 Alpha  occ. eigenvalues --  -20.23431 -11.08294 -11.05236 -11.04297 -11.04138
 Alpha  occ. eigenvalues --  -11.03644 -11.03426 -11.03348 -11.03154 -11.02847
 Alpha  occ. eigenvalues --  -11.02774  -1.27624  -1.07704  -1.03928  -0.96590
 Alpha  occ. eigenvalues --   -0.94794  -0.89329  -0.87602  -0.78876  -0.78287
 Alpha  occ. eigenvalues --   -0.74149  -0.67730  -0.64173  -0.60879  -0.59464
 Alpha  occ. eigenvalues --   -0.57138  -0.55809  -0.53683  -0.53152  -0.52379
 Alpha  occ. eigenvalues --   -0.51114  -0.50377  -0.49763  -0.48055  -0.45871
 Alpha  occ. eigenvalues --   -0.45350  -0.43650  -0.43370  -0.42697  -0.40635
 Alpha  occ. eigenvalues --   -0.39580  -0.38668  -0.36463  -0.32769
 Alpha virt. eigenvalues --    0.52650   0.55489   0.56623   0.59326   0.61357
 Alpha virt. eigenvalues --    0.61575   0.62188   0.64990   0.65822   0.66715
 Alpha virt. eigenvalues --    0.68334   0.69372   0.70781   0.71022   0.71936

 Mulliken atomic charges:
              1
     1  C   -0.171305
     2  C   -0.022115
     3  C    0.074002
     4  C   -0.099507
     5  C   -0.040342
     6  C   -0.100889
     7  C   -0.105949
     8  O   -0.315659
     9  C   -0.022735
    10  C   -0.175660
    11  C   -0.172793
    12  H    0.052526
    13  H    0.053015
    14  H    0.055015
    15  H    0.043176
    16  H    0.042830
    17  H    0.050820
    18  H    0.047316
    19  H    0.045303
    20  H    0.056194
    21  H    0.048461
    22  H    0.064042
    23  H    0.050094
    24  H    0.175301
    25  H    0.043560
    26  H    0.054891
    27  H    0.049592
    28  H    0.056139
    29  H    0.053124
    30  H    0.057179
    31  H    0.054373
 Sum of Mulliken atomic charges =   0.00000

 Dipole moment (field-independent basis, Debye):
    X=             -1.0925    Y=              0.1811    Z=             -0.8319  Tot=              1.3851
 Quadrupole moment (field-independent basis, Debye-Ang):
   XX=            -67.0377   YY=            -68.0375   ZZ=            -68.2088
   XY=              1.8113   XZ=             -2.0606   YZ=              0.8545

 Summary of Natural Population Analysis:

                                       Natural Population
                Natural  -----------------------------------------------
    Atom  No    Charge         Core      Valence    Rydberg      Total
 -----------------------------------------------------------------------
      C    1   -0.12628      1.99997     4.12630    0.00000     6.12628
      C    2    0.01554      1.99997     3.98449    0.00000     5.98446
      C    3    0.14189      1.99988     3.85823    0.00000     5.85811
      C    4   -0.06131      1.99995     4.06136    0.00000     6.06131
      C    5   -0.01930      1.99995     4.01934    0.00000     6.01930
      C    6   -0.06506      1.99996     4.06509    0.00000     6.06506
      C    7   -0.08108      1.99995     4.08113    0.00000     6.08108
      O    8   -0.33686      1.99999     6.33687    0.00000     8.33686
      C    9    0.01946      1.99996     3.98058    0.00000     5.98054
      C   10   -0.13158      1.99997     4.13161    0.00000     6.13158
      C   11   -0.12853      1.99997     4.12856    0.00000     6.12853
      H   12    0.03535      0.00000     0.96465    0.00000     0.96465
      H   13    0.03581      0.00000     0.96419    0.00000     0.96419
      H   14    0.03755      0.00000     0.96245    0.00000     0.96245
      H   15    0.01932      0.00000     0.98068    0.00000     0.98068
      H   16    0.00697      0.00000     0.99303    0.00000     0.99303
      H   17    0.02948      0.00000     0.97052    0.00000     0.97052
      H   18    0.02620      0.00000     0.97380    0.00000     0.97380
      H   19    0.02054      0.00000     0.97946    0.00000     0.97946
      H   20    0.03479      0.00000     0.96521    0.00000     0.96521
      H   21    0.02823      0.00000     0.97177    0.00000     0.97177
      H   22    0.04252      0.00000     0.95748    0.00000     0.95748
      H   23    0.02960      0.00000     0.97040    0.00000     0.97040
      H   24    0.18764      0.00000     0.81236    0.00000     0.81236
      H   25    0.01843      0.00000     0.98157    0.00000     0.98157
      H   26    0.03753      0.00000     0.96247    0.00000     0.96247
      H   27    0.03254      0.00000     0.96746    0.00000     0.96746
      H   28    0.03883      0.00000     0.96117    0.00000     0.96117
      H   29    0.03564      0.00000     0.96436    0.00000     0.96436
      H   30    0.03917      0.00000     0.96083    0.00000     0.96083
      H   31    0.03697      0.00000     0.96303    0.00000     0.96303
 =======================================================================
   * Total *    0.00000     21.99954    66.00046    0.00000    88.00000

 Normal termination of Gaussian 09 at Tue Aug  3 16:35:04 2021.
