 Gaussian 09, Revision C.01,
 Gaussian 09:  EM64L-G09RevC.01 23-Sep-2011

 ------------------------
 # rhf/STO-3G nmr pop=nbo
 ------------------------

 99/9=1/99;
 -------
 comment
 -------
 Charge =  0 Multiplicity = 1

                         Standard orientation:
 ---------------------------------------------------------------------
 Center     Atomic      Atomic             Coordinates (Angstroms)
 Number     Number       Type             X           Y           Z
 ---------------------------------------------------------------------
      1          6           0       -2.436341   -0.730240    1.460813
      2          6           0       -2.225356    0.126264    0.210309
      3          6           0       -0.088761    1.242865   -0.613664
      4          6           0       -0.447427   -1.231079   -1.030525
      5          6           0        0.613736   -0.129225   -0.746725
      6          6           0       -1.896122   -0.738323   -1.017324
      7          6           0       -1.167605    1.215458    0.465114
      8          8           0        0.809925    2.312115   -0.362023
      9          6           0        1.541205   -0.575833    0.435851
     10          6           0        2.519871    0.490799    0.934119
     11          6           0        2.365220   -1.815770    0.040985
     12          1           0       -1.523955   -1.263314    1.745704
     13          1           0       -2.740984   -0.106598    2.308164
     14          1           0       -3.223923   -1.472792    1.294748
     15          1           0       -3.182247    0.625444    0.006763
     16          1           0       -0.562531    1.489767   -1.572360
     17          1           0       -0.372619   -2.046679   -0.302447
     18          1           0       -0.238209   -1.683303   -2.008066
     19          1           0        1.266446   -0.053307   -1.628567
     20          1           0       -2.576042   -1.597245   -1.073130
     21          1           0       -2.082261   -0.154850   -1.928309
     22          1           0       -0.700961    1.100501    1.451842
     23          1           0       -1.659351    2.196384    0.506492
     24          1           0        1.460530    2.322709   -1.084653
     25          1           0        0.910311   -0.856248    1.288920
     26          1           0        3.098031    0.919667    0.109268
     27          1           0        1.998758    1.293448    1.463346
     28          1           0        3.230551    0.064844    1.651646
     29          1           0        3.029022   -1.593032   -0.801636
     30          1           0        1.732605   -2.660762   -0.243893
     31          1           0        2.986907   -2.151056    0.878640
 ---------------------------------------------------------------------

 SCF Done:  E(RHF) =  -459.603930497     A.U. after   10 cycles

      1  C    Isotropic =   220.9084   Anisotropy =    26.2039

      2  C    Isotropic =   216.6716   Anisotropy =     7.4676

      3  C    Isotropic =   188.5553   Anisotropy =    44.6845

      4  C    Isotropic =   217.0579   Anisotropy =    22.6639

      5  C    Isotropic =   209.9799   Anisotropy =     9.5704

      6  C    Isotropic =   218.2709   Anisotropy =    11.3485

      7  C    Isotropic =   217.9762   Anisotropy =    22.0251

      8  O    Isotropic =   357.9086   Anisotropy =    92.6653

      9  C    Isotropic =   211.6065   Anisotropy =    17.3765

     10  C    Isotropic =   221.8048   Anisotropy =    22.6381

     11  C    Isotropic =   220.4528   Anisotropy =    27.7224

     12  H    Isotropic =    32.5370   Anisotropy =     8.0940

     13  H    Isotropic =    32.3552   Anisotropy =    13.7942

     14  H    Isotropic =    32.5943   Anisotropy =    14.5716

     15  H    Isotropic =    32.2439   Anisotropy =    15.2789

     16  H    Isotropic =    31.8514   Anisotropy =     9.5696

     17  H    Isotropic =    32.5957   Anisotropy =     9.0476

     18  H    Isotropic =    32.2296   Anisotropy =    14.2445

     19  H    Isotropic =    33.0189   Anisotropy =    11.3369

     20  H    Isotropic =    32.6567   Anisotropy =    14.4975

     21  H    Isotropic =    32.5668   Anisotropy =    13.2281

     22  H    Isotropic =    32.4062   Anisotropy =     8.4170

     23  H    Isotropic =    31.7648   Anisotropy =    14.7081

     24  H    Isotropic =    35.1718   Anisotropy =    17.3858

     25  H    Isotropic =    32.6704   Anisotropy =     9.0118

     26  H    Isotropic =    32.8486   Anisotropy =    10.9247

     27  H    Isotropic =    31.8578   Anisotropy =     9.5923

     28  H    Isotropic =    32.6103   Anisotropy =    14.2216

     29  H    Isotropic =    32.7021   Anisotropy =    11.9040

     30  H    Isotropic =    32.4117   Anisotropy =    10.5923

     31  H    Isotropic =    32.5214   Anisotropy =    14.1905

 The electronic state is 1-A.
 Alpha  occ. eigenvalues --  -20.23882 -11.08553 -11.04692 -11.04626 -11.04306
 Alpha  occ. eigenvalues --  -11.03746 -11.03657 -11.03445 -11.03147 -11.02952
 Alpha  occ. eigenvalues --  -11.02382  -1.28002  -1.08166  -1.03316  -0.96791
 Alpha  occ. eigenvalues --   -0.94659  -0.88459  -0.88107  -0.79807  -0.78274
 Alpha  occ. eigenvalues --   -0.73724  -0.67669  -0.63327  -0.61946  -0.58172
 Alpha  occ. eigenvalues --   -0.57010  -0.56197  -0.54743  -0.54076  -0.51907
 Alpha  occ. eigenvalues --   -0.50599  -0.50281  -0.48723  -0.47698  -0.47399
 Alpha  occ. eigenvalues --   -0.45678  -0.42963  -0.42710  -0.42274  -0.41227
 Alpha  occ. eigenvalues --   -0.39859  -0.39113  -0.36140  -0.32484
 Alpha virt. eigenvalues --    0.51760   0.54961   0.57217   0.59917   0.60559
 Alpha virt. eigenvalues --    0.61356   0.62327   0.64963   0.65402   0.66081
 Alpha virt. eigenvalues --    0.67529   0.69047   0.70141   0.71344   0.71868

 Mulliken atomic charges:
              1
     1  C   -0.171336
     2  C   -0.025077
     3  C    0.079300
     4  C   -0.104390
     5  C   -0.042768
     6  C   -0.100712
     7  C   -0.109639
     8  O   -0.311323
     9  C   -0.018879
    10  C   -0.174309
    11  C   -0.173321
    12  H    0.052500
    13  H    0.054957
    14  H    0.052774
    15  H    0.049531
    16  H    0.039876
    17  H    0.051709
    18  H    0.050197
    19  H    0.038037
    20  H    0.052114
    21  H    0.046728
    22  H    0.057396
    23  H    0.058000
    24  H    0.177476
    25  H    0.045265
    26  H    0.047810
    27  H    0.068252
    28  H    0.051232
    29  H    0.050893
    30  H    0.053447
    31  H    0.054259
 Sum of Mulliken atomic charges =   0.00000

 Dipole moment (field-independent basis, Debye):
    X=             -0.0960    Y=             -0.9186    Z=             -1.0034  Tot=              1.3638
 Quadrupole moment (field-independent basis, Debye-Ang):
   XX=            -66.6210   YY=            -71.5649   ZZ=            -65.7828
   XY=             -0.1117   XZ=             -1.4839   YZ=             -2.2669

 Summary of Natural Population Analysis:

                                       Natural Population
                Natural  -----------------------------------------------
    Atom  No    Charge         Core      Valence    Rydberg      Total
 -----------------------------------------------------------------------
      C    1   -0.12634      1.99997     4.12637    0.00000     6.12634
      C    2    0.01424      1.99996     3.98580    0.00000     5.98576
      C    3    0.14574      1.99989     3.85437    0.00000     5.85426
      C    4   -0.06603      1.99995     4.06608    0.00000     6.06603
      C    5   -0.01953      1.99995     4.01958    0.00000     6.01953
      C    6   -0.06305      1.99996     4.06309    0.00000     6.06305
      C    7   -0.08677      1.99995     4.08682    0.00000     6.08677
      O    8   -0.33206      1.99999     6.33207    0.00000     8.33206
      C    9    0.02387      1.99996     3.97617    0.00000     5.97613
      C   10   -0.13165      1.99997     4.13168    0.00000     6.13165
      C   11   -0.12859      1.99997     4.12862    0.00000     6.12859
      H   12    0.03500      0.00000     0.96500    0.00000     0.96500
      H   13    0.03754      0.00000     0.96246    0.00000     0.96246
      H   14    0.03538      0.00000     0.96462    0.00000     0.96462
      H   15    0.02498      0.00000     0.97502    0.00000     0.97502
      H   16    0.00460      0.00000     0.99540    0.00000     0.99540
      H   17    0.03009      0.00000     0.96991    0.00000     0.96991
      H   18    0.02908      0.00000     0.97092    0.00000     0.97092
      H   19    0.01267      0.00000     0.98733    0.00000     0.98733
      H   20    0.03136      0.00000     0.96864    0.00000     0.96864
      H   21    0.02585      0.00000     0.97415    0.00000     0.97415
      H   22    0.03645      0.00000     0.96355    0.00000     0.96355
      H   23    0.03716      0.00000     0.96284    0.00000     0.96284
      H   24    0.19013      0.00000     0.80987    0.00000     0.80987
      H   25    0.01930      0.00000     0.98070    0.00000     0.98070
      H   26    0.03135      0.00000     0.96865    0.00000     0.96865
      H   27    0.04934      0.00000     0.95066    0.00000     0.95066
      H   28    0.03432      0.00000     0.96568    0.00000     0.96568
      H   29    0.03343      0.00000     0.96657    0.00000     0.96657
      H   30    0.03537      0.00000     0.96463    0.00000     0.96463
      H   31    0.03678      0.00000     0.96322    0.00000     0.96322
 =======================================================================
   * Total *    0.00000     21.99953    66.00047    0.00000    88.00000

 Normal termination of Gaussian 09 at Tue Aug  3 16:35:44 2021.
