 Gaussian 09, Revision C.01,
 Gaussian 09:  EM64L-G09RevC.01 23-Sep-2011

 ------------------------
 # rhf/STO-3G nmr pop=nbo
 ------------------------

 99/9=1/99;
 -------
 comment
 -------
 Charge =  0 Multiplicity = 1

                         Standard orientation:
 ---------------------------------------------------------------------
 Center     Atomic      Atomic             Coordinates (Angstroms)
 Number     Number       Type             X           Y           Z
 ---------------------------------------------------------------------
      1          6           0       -3.325237    0.102828    0.781175
      2          6           0       -2.142261    0.069344   -0.185107
      3          6           0        0.133731    1.073091   -0.706222
      4          6           0       -0.305810   -1.380240   -1.150693
      5          6           0        0.777366   -0.324934   -0.840438
      6          6           0       -1.523688   -1.330439   -0.234181
      7          6           0       -1.099574    1.121506    0.199657
      8          8           0        1.085020    2.037247   -0.276357
      9          6           0        1.770616   -0.794537    0.272774
     10          6           0        1.359995   -0.512523    1.716800
     11          6           0        3.182536   -0.232105    0.040206
     12          1           0       -3.791008    1.093883    0.790571
     13          1           0       -4.089316   -0.623523    0.484833
     14          1           0       -3.011473   -0.133752    1.803597
     15          1           0       -2.521486    0.312762   -1.186758
     16          1           0       -0.184604    1.381354   -1.711295
     17          1           0        0.122680   -2.389267   -1.139465
     18          1           0       -0.653238   -1.216687   -2.180235
     19          1           0        1.391595   -0.279025   -1.752827
     20          1           0       -1.251805   -1.666246    0.771225
     21          1           0       -2.270173   -2.046311   -0.600605
     22          1           0       -0.811842    1.013001    1.250491
     23          1           0       -1.546483    2.122760    0.136916
     24          1           0        0.640536    2.901604   -0.250760
     25          1           0        1.872632   -1.884449    0.180346
     26          1           0        1.340802    0.559158    1.935072
     27          1           0        0.384063   -0.937543    1.955653
     28          1           0        2.078920   -0.965682    2.409416
     29          1           0        3.224320    0.851774    0.176547
     30          1           0        3.536292   -0.464282   -0.969817
     31          1           0        3.893375   -0.679460    0.744129
 ---------------------------------------------------------------------

 SCF Done:  E(RHF) =  -459.612465916     A.U. after   10 cycles

      1  C    Isotropic =   221.0895   Anisotropy =    28.1279

      2  C    Isotropic =   215.4070   Anisotropy =     7.2256

      3  C    Isotropic =   188.0622   Anisotropy =    39.8866

      4  C    Isotropic =   214.1693   Anisotropy =    18.1202

      5  C    Isotropic =   211.6293   Anisotropy =    16.4053

      6  C    Isotropic =   217.9538   Anisotropy =    15.9904

      7  C    Isotropic =   215.5103   Anisotropy =    22.6230

      8  O    Isotropic =   358.0759   Anisotropy =    93.0603

      9  C    Isotropic =   210.2459   Anisotropy =    21.9581

     10  C    Isotropic =   222.2830   Anisotropy =    18.2146

     11  C    Isotropic =   218.8184   Anisotropy =    30.4671

     12  H    Isotropic =    32.5152   Anisotropy =    13.7821

     13  H    Isotropic =    32.4552   Anisotropy =    14.0631

     14  H    Isotropic =    32.6783   Anisotropy =    10.8815

     15  H    Isotropic =    32.8738   Anisotropy =    12.0778

     16  H    Isotropic =    31.9179   Anisotropy =    10.5790

     17  H    Isotropic =    32.3710   Anisotropy =    13.3913

     18  H    Isotropic =    32.4427   Anisotropy =    13.5717

     19  H    Isotropic =    32.0517   Anisotropy =    12.4494

     20  H    Isotropic =    32.8088   Anisotropy =     9.3053

     21  H    Isotropic =    32.5445   Anisotropy =    14.6344

     22  H    Isotropic =    32.5550   Anisotropy =     7.9496

     23  H    Isotropic =    32.9463   Anisotropy =    12.9788

     24  H    Isotropic =    35.0733   Anisotropy =    19.3865

     25  H    Isotropic =    32.5291   Anisotropy =    11.5661

     26  H    Isotropic =    32.3381   Anisotropy =     8.1169

     27  H    Isotropic =    32.7078   Anisotropy =     9.4608

     28  H    Isotropic =    32.5016   Anisotropy =    14.8556

     29  H    Isotropic =    31.8090   Anisotropy =     9.5004

     30  H    Isotropic =    32.4230   Anisotropy =    12.9689

     31  H    Isotropic =    32.4528   Anisotropy =    14.6598

 The electronic state is 1-A.
 Alpha  occ. eigenvalues --  -20.23867 -11.08703 -11.04879 -11.04166 -11.04077
 Alpha  occ. eigenvalues --  -11.03649 -11.03602 -11.03593 -11.03299 -11.02290
 Alpha  occ. eigenvalues --  -11.01656  -1.28003  -1.08130  -1.03047  -0.97051
 Alpha  occ. eigenvalues --   -0.94768  -0.88785  -0.87400  -0.79457  -0.77719
 Alpha  occ. eigenvalues --   -0.73818  -0.69144  -0.61891  -0.61041  -0.58690
 Alpha  occ. eigenvalues --   -0.57455  -0.56530  -0.54569  -0.53312  -0.51621
 Alpha  occ. eigenvalues --   -0.50281  -0.49511  -0.48787  -0.47669  -0.46875
 Alpha  occ. eigenvalues --   -0.46498  -0.44568  -0.42664  -0.42028  -0.39814
 Alpha  occ. eigenvalues --   -0.39500  -0.38408  -0.36092  -0.33126
 Alpha virt. eigenvalues --    0.52733   0.55628   0.56924   0.59145   0.61267
 Alpha virt. eigenvalues --    0.62257   0.63259   0.63412   0.64897   0.67187
 Alpha virt. eigenvalues --    0.69387   0.69907   0.71765   0.72599   0.72770

 Mulliken atomic charges:
              1
     1  C   -0.171682
     2  C   -0.022698
     3  C    0.079177
     4  C   -0.100122
     5  C   -0.034773
     6  C   -0.101895
     7  C   -0.117087
     8  O   -0.314352
     9  C   -0.015802
    10  C   -0.176986
    11  C   -0.173203
    12  H    0.053200
    13  H    0.054336
    14  H    0.053769
    15  H    0.045828
    16  H    0.037889
    17  H    0.052586
    18  H    0.045910
    19  H    0.052072
    20  H    0.049759
    21  H    0.050281
    22  H    0.058154
    23  H    0.042758
    24  H    0.178091
    25  H    0.045434
    26  H    0.061919
    27  H    0.050190
    28  H    0.052331
    29  H    0.068239
    30  H    0.048418
    31  H    0.048260
 Sum of Mulliken atomic charges =   0.00000

 Dipole moment (field-independent basis, Debye):
    X=             -1.3475    Y=              0.1980    Z=             -0.3247  Tot=              1.4001
 Quadrupole moment (field-independent basis, Debye-Ang):
   XX=            -70.6344   YY=            -64.5895   ZZ=            -67.2829
   XY=             -2.5800   XZ=              0.7238   YZ=             -0.4053

 Summary of Natural Population Analysis:

                                       Natural Population
                Natural  -----------------------------------------------
    Atom  No    Charge         Core      Valence    Rydberg      Total
 -----------------------------------------------------------------------
      C    1   -0.12684      1.99997     4.12686    0.00000     6.12684
      C    2    0.01637      1.99997     3.98367    0.00000     5.98363
      C    3    0.14719      1.99989     3.85292    0.00000     5.85281
      C    4   -0.06232      1.99996     4.06236    0.00000     6.06232
      C    5   -0.01294      1.99994     4.01300    0.00000     6.01294
      C    6   -0.06548      1.99996     4.06552    0.00000     6.06548
      C    7   -0.09440      1.99996     4.09444    0.00000     6.09440
      O    8   -0.33531      1.99999     6.33532    0.00000     8.33531
      C    9    0.02619      1.99996     3.97386    0.00000     5.97381
      C   10   -0.13370      1.99997     4.13373    0.00000     6.13370
      C   11   -0.12903      1.99997     4.12907    0.00000     6.12903
      H   12    0.03596      0.00000     0.96404    0.00000     0.96404
      H   13    0.03702      0.00000     0.96298    0.00000     0.96298
      H   14    0.03644      0.00000     0.96356    0.00000     0.96356
      H   15    0.02187      0.00000     0.97813    0.00000     0.97813
      H   16    0.00230      0.00000     0.99770    0.00000     0.99770
      H   17    0.03149      0.00000     0.96851    0.00000     0.96851
      H   18    0.02500      0.00000     0.97500    0.00000     0.97500
      H   19    0.02619      0.00000     0.97381    0.00000     0.97381
      H   20    0.02876      0.00000     0.97124    0.00000     0.97124
      H   21    0.03009      0.00000     0.96991    0.00000     0.96991
      H   22    0.03678      0.00000     0.96322    0.00000     0.96322
      H   23    0.02354      0.00000     0.97646    0.00000     0.97646
      H   24    0.19078      0.00000     0.80922    0.00000     0.80922
      H   25    0.01992      0.00000     0.98008    0.00000     0.98008
      H   26    0.04400      0.00000     0.95600    0.00000     0.95600
      H   27    0.03297      0.00000     0.96703    0.00000     0.96703
      H   28    0.03583      0.00000     0.96417    0.00000     0.96417
      H   29    0.04874      0.00000     0.95126    0.00000     0.95126
      H   30    0.03132      0.00000     0.96868    0.00000     0.96868
      H   31    0.03126      0.00000     0.96874    0.00000     0.96874
 =======================================================================
   * Total *    0.00000     21.99954    66.00046    0.00000    88.00000

 Normal termination of Gaussian 09 at Tue Aug  3 16:35:25 2021.
