 Gaussian 09, Revision C.01,
 Gaussian 09:  EM64L-G09RevC.01 23-Sep-2011

 ------------------------
 # rhf/STO-3G nmr pop=nbo
 ------------------------

 99/9=1/99;
 -------
 comment
 -------
 Charge =  0 Multiplicity = 1

                         Standard orientation:
 ---------------------------------------------------------------------
 Center     Atomic      Atomic             Coordinates (Angstroms)
 Number     Number       Type             X           Y           Z
 ---------------------------------------------------------------------
      1          6           0       -3.222369   -0.133273    0.753815
      2          6           0       -2.157979   -0.572946   -0.253128
      3          6           0       -0.260059    1.113987   -0.706688
      4          6           0        0.228076   -1.403869   -0.398572
      5          6           0        0.807696   -0.010925   -0.732684
      6          6           0       -1.032644   -1.342918    0.453228
      7          6           0       -1.647084    0.605149   -1.106544
      8          8           0       -0.334784    1.798343    0.536678
      9          6           0        2.113253    0.346442    0.038927
     10          6           0        3.310616   -0.423715   -0.538179
     11          6           0        2.062014    0.112562    1.552806
     12          1           0       -4.072266    0.330376    0.241783
     13          1           0       -3.602035   -0.993572    1.315382
     14          1           0       -2.826023    0.590597    1.472418
     15          1           0       -2.654693   -1.269191   -0.943343
     16          1           0        0.044358    1.876797   -1.433765
     17          1           0        0.971175   -2.048718    0.080801
     18          1           0       -0.025194   -1.908048   -1.341582
     19          1           0        1.097995   -0.084905   -1.792578
     20          1           0       -0.797195   -0.896130    1.425755
     21          1           0       -1.376949   -2.362377    0.667542
     22          1           0       -1.595405    0.271104   -2.151522
     23          1           0       -2.368862    1.430588   -1.080937
     24          1           0       -0.701868    1.198497    1.203999
     25          1           0        2.319435    1.412372   -0.126917
     26          1           0        3.202686   -1.504443   -0.402470
     27          1           0        3.422810   -0.224938   -1.609291
     28          1           0        4.240851   -0.115631   -0.048388
     29          1           0        1.249440    0.661250    2.031939
     30          1           0        1.947090   -0.946901    1.801257
     31          1           0        2.993801    0.453568    2.018603
 ---------------------------------------------------------------------

 SCF Done:  E(RHF) =  -459.605575424     A.U. after   10 cycles

      1  C    Isotropic =   219.9377   Anisotropy =    27.7274

      2  C    Isotropic =   216.9723   Anisotropy =     7.8350

      3  C    Isotropic =   188.1542   Anisotropy =    34.7354

      4  C    Isotropic =   220.2759   Anisotropy =    12.9904

      5  C    Isotropic =   211.1089   Anisotropy =    20.4853

      6  C    Isotropic =   218.3110   Anisotropy =    17.6440

      7  C    Isotropic =   216.6413   Anisotropy =    11.4632

      8  O    Isotropic =   359.8932   Anisotropy =    74.0978

      9  C    Isotropic =   213.8375   Anisotropy =    15.4483

     10  C    Isotropic =   220.1635   Anisotropy =    28.8773

     11  C    Isotropic =   223.3799   Anisotropy =    21.7437

     12  H    Isotropic =    32.4164   Anisotropy =    14.3454

     13  H    Isotropic =    32.5110   Anisotropy =    13.8043

     14  H    Isotropic =    32.9923   Anisotropy =     9.2662

     15  H    Isotropic =    32.4404   Anisotropy =    13.9775

     16  H    Isotropic =    31.2299   Anisotropy =    12.6103

     17  H    Isotropic =    32.5500   Anisotropy =    11.5267

     18  H    Isotropic =    32.6301   Anisotropy =    13.5423

     19  H    Isotropic =    32.4162   Anisotropy =    12.0445

     20  H    Isotropic =    33.5342   Anisotropy =     8.0908

     21  H    Isotropic =    32.4757   Anisotropy =    14.3208

     22  H    Isotropic =    32.3367   Anisotropy =    13.6127

     23  H    Isotropic =    32.2383   Anisotropy =    13.5763

     24  H    Isotropic =    35.3395   Anisotropy =    10.4443

     25  H    Isotropic =    32.0066   Anisotropy =    11.5515

     26  H    Isotropic =    32.5165   Anisotropy =     9.9229

     27  H    Isotropic =    32.5243   Anisotropy =    13.3232

     28  H    Isotropic =    32.4182   Anisotropy =    14.5497

     29  H    Isotropic =    32.6567   Anisotropy =     9.8009

     30  H    Isotropic =    32.8474   Anisotropy =     8.8470

     31  H    Isotropic =    32.5112   Anisotropy =    14.9248

 The electronic state is 1-A.
 Alpha  occ. eigenvalues --  -20.23621 -11.08555 -11.04996 -11.04582 -11.04213
 Alpha  occ. eigenvalues --  -11.03970 -11.03813 -11.03746 -11.03639 -11.02885
 Alpha  occ. eigenvalues --  -11.02781  -1.27988  -1.08080  -1.03743  -0.96981
 Alpha  occ. eigenvalues --   -0.95653  -0.88835  -0.88158  -0.80643  -0.78441
 Alpha  occ. eigenvalues --   -0.72772  -0.69050  -0.63130  -0.61975  -0.58438
 Alpha  occ. eigenvalues --   -0.57730  -0.54745  -0.54125  -0.53482  -0.53175
 Alpha  occ. eigenvalues --   -0.52368  -0.50668  -0.49786  -0.47801  -0.47602
 Alpha  occ. eigenvalues --   -0.45920  -0.43931  -0.42962  -0.42439  -0.41814
 Alpha  occ. eigenvalues --   -0.39695  -0.38823  -0.36045  -0.32469
 Alpha virt. eigenvalues --    0.52082   0.56519   0.57085   0.58122   0.59992
 Alpha virt. eigenvalues --    0.60951   0.61057   0.63296   0.64539   0.66060
 Alpha virt. eigenvalues --    0.67488   0.69715   0.70884   0.71242   0.71392

 Mulliken atomic charges:
              1
     1  C   -0.172233
     2  C   -0.029844
     3  C    0.077481
     4  C   -0.104941
     5  C   -0.044285
     6  C   -0.104372
     7  C   -0.117417
     8  O   -0.316648
     9  C   -0.017577
    10  C   -0.172282
    11  C   -0.176196
    12  H    0.056291
    13  H    0.054956
    14  H    0.049418
    15  H    0.049666
    16  H    0.057797
    17  H    0.053958
    18  H    0.047739
    19  H    0.047078
    20  H    0.042285
    21  H    0.053347
    22  H    0.051578
    23  H    0.059918
    24  H    0.179233
    25  H    0.055206
    26  H    0.051498
    27  H    0.051757
    28  H    0.053971
    29  H    0.056758
    30  H    0.050863
    31  H    0.054996
 Sum of Mulliken atomic charges =   0.00000

 Dipole moment (field-independent basis, Debye):
    X=             -0.4320    Y=             -1.4315    Z=             -0.3460  Tot=              1.5348
 Quadrupole moment (field-independent basis, Debye-Ang):
   XX=            -67.2368   YY=            -71.6701   ZZ=            -66.2243
   XY=              0.4475   XZ=             -0.1015   YZ=             -1.2477

 Summary of Natural Population Analysis:

                                       Natural Population
                Natural  -----------------------------------------------
    Atom  No    Charge         Core      Valence    Rydberg      Total
 -----------------------------------------------------------------------
      C    1   -0.12702      1.99997     4.12705    0.00000     6.12702
      C    2    0.00896      1.99997     3.99108    0.00000     5.99104
      C    3    0.14412      1.99989     3.85599    0.00000     5.85588
      C    4   -0.06839      1.99996     4.06843    0.00000     6.06839
      C    5   -0.02410      1.99995     4.02416    0.00000     6.02410
      C    6   -0.06640      1.99996     4.06644    0.00000     6.06640
      C    7   -0.09440      1.99996     4.09444    0.00000     6.09440
      O    8   -0.33726      1.99999     6.33727    0.00000     8.33726
      C    9    0.02361      1.99996     3.97643    0.00000     5.97639
      C   10   -0.12762      1.99997     4.12765    0.00000     6.12762
      C   11   -0.13236      1.99997     4.13239    0.00000     6.13236
      H   12    0.03877      0.00000     0.96123    0.00000     0.96123
      H   13    0.03748      0.00000     0.96252    0.00000     0.96252
      H   14    0.03222      0.00000     0.96778    0.00000     0.96778
      H   15    0.02547      0.00000     0.97453    0.00000     0.97453
      H   16    0.02236      0.00000     0.97764    0.00000     0.97764
      H   17    0.03304      0.00000     0.96696    0.00000     0.96696
      H   18    0.02726      0.00000     0.97274    0.00000     0.97274
      H   19    0.02260      0.00000     0.97740    0.00000     0.97740
      H   20    0.02219      0.00000     0.97781    0.00000     0.97781
      H   21    0.03297      0.00000     0.96703    0.00000     0.96703
      H   22    0.03181      0.00000     0.96819    0.00000     0.96819
      H   23    0.03903      0.00000     0.96097    0.00000     0.96097
      H   24    0.19116      0.00000     0.80884    0.00000     0.80884
      H   25    0.02915      0.00000     0.97085    0.00000     0.97085
      H   26    0.03390      0.00000     0.96610    0.00000     0.96610
      H   27    0.03430      0.00000     0.96570    0.00000     0.96570
      H   28    0.03652      0.00000     0.96348    0.00000     0.96348
      H   29    0.03878      0.00000     0.96122    0.00000     0.96122
      H   30    0.03372      0.00000     0.96628    0.00000     0.96628
      H   31    0.03813      0.00000     0.96187    0.00000     0.96187
 =======================================================================
   * Total *    0.00000     21.99954    66.00046    0.00000    88.00000

 Normal termination of Gaussian 09 at Tue Aug  3 16:36:29 2021.
