 Gaussian 09, Revision C.01,
 Gaussian 09:  EM64L-G09RevC.01 23-Sep-2011

 ------------------------
 # rhf/STO-3G nmr pop=nbo
 ------------------------

 99/9=1/99;
 -------
 comment
 -------
 Charge =  0 Multiplicity = 1

                         Standard orientation:
 ---------------------------------------------------------------------
 Center     Atomic      Atomic             Coordinates (Angstroms)
 Number     Number       Type             X           Y           Z
 ---------------------------------------------------------------------
      1          6           0        3.654868   -0.065946   -0.280615
      2          6           0        2.155883    0.123971   -0.506040
      3          6           0       -0.082556   -1.018021    0.081816
      4          6           0        0.114142    1.509769    0.114210
      5          6           0       -0.640494    0.300610   -0.483591
      6          6           0        1.598592    1.235559    0.385286
      7          6           0        1.398324   -1.202789   -0.294036
      8          8           0       -0.193512   -1.023200    1.504976
      9          6           0       -2.182602    0.485598   -0.381142
     10          6           0       -2.765965    0.360775    1.028278
     11          6           0       -2.919982   -0.480395   -1.317157
     12          1           0        4.199786    0.859369   -0.495285
     13          1           0        3.868912   -0.351175    0.754989
     14          1           0        4.049711   -0.848043   -0.937605
     15          1           0        2.021091    0.430919   -1.552330
     16          1           0       -0.652354   -1.876149   -0.288672
     17          1           0       -0.344736    1.854477    1.046793
     18          1           0        0.028485    2.348363   -0.589037
     19          1           0       -0.413883    0.298703   -1.560732
     20          1           0        1.726061    0.955733    1.439182
     21          1           0        2.165815    2.163853    0.246060
     22          1           0        1.900473   -1.806939    0.472004
     23          1           0        1.459812   -1.771588   -1.230820
     24          1           0        0.107379   -1.892281    1.820537
     25          1           0       -2.409102    1.500542   -0.736118
     26          1           0       -2.710875   -0.666650    1.401361
     27          1           0       -2.259482    1.016258    1.741411
     28          1           0       -3.824714    0.644289    1.024580
     29          1           0       -2.805416   -1.521608   -1.000219
     30          1           0       -2.548112   -0.392114   -2.343285
     31          1           0       -3.992022   -0.255160   -1.334675
 ---------------------------------------------------------------------

 SCF Done:  E(RHF) =  -459.612091904     A.U. after   10 cycles

      1  C    Isotropic =   221.1209   Anisotropy =    27.6623

      2  C    Isotropic =   216.5495   Anisotropy =     8.9922

      3  C    Isotropic =   189.7571   Anisotropy =    36.7643

      4  C    Isotropic =   218.2358   Anisotropy =    18.9366

      5  C    Isotropic =   210.9613   Anisotropy =    17.8126

      6  C    Isotropic =   217.2475   Anisotropy =    17.9342

      7  C    Isotropic =   212.1299   Anisotropy =    21.9317

      8  O    Isotropic =   349.0991   Anisotropy =    92.9145

      9  C    Isotropic =   213.3675   Anisotropy =    16.6476

     10  C    Isotropic =   223.5107   Anisotropy =    20.2974

     11  C    Isotropic =   220.9033   Anisotropy =    27.1162

     12  H    Isotropic =    32.4562   Anisotropy =    14.1133

     13  H    Isotropic =    32.6785   Anisotropy =    11.4752

     14  H    Isotropic =    32.4344   Anisotropy =    13.5047

     15  H    Isotropic =    32.6352   Anisotropy =    10.9247

     16  H    Isotropic =    31.9324   Anisotropy =     9.8351

     17  H    Isotropic =    32.0421   Anisotropy =    11.1898

     18  H    Isotropic =    32.3586   Anisotropy =    13.8055

     19  H    Isotropic =    32.6235   Anisotropy =     9.1817

     20  H    Isotropic =    32.2590   Anisotropy =    10.4054

     21  H    Isotropic =    32.3802   Anisotropy =    14.3689

     22  H    Isotropic =    32.9897   Anisotropy =    11.0471

     23  H    Isotropic =    32.2110   Anisotropy =    12.6325

     24  H    Isotropic =    35.2126   Anisotropy =    19.2676

     25  H    Isotropic =    32.4319   Anisotropy =    12.2892

     26  H    Isotropic =    32.3429   Anisotropy =     9.3636

     27  H    Isotropic =    32.1944   Anisotropy =    10.5374

     28  H    Isotropic =    32.5661   Anisotropy =    15.0144

     29  H    Isotropic =    32.4924   Anisotropy =     9.6224

     30  H    Isotropic =    32.6043   Anisotropy =    12.5558

     31  H    Isotropic =    32.3738   Anisotropy =    14.6059

 The electronic state is 1-A.
 Alpha  occ. eigenvalues --  -20.23452 -11.08490 -11.04377 -11.04312 -11.04273
 Alpha  occ. eigenvalues --  -11.03623 -11.03062 -11.02885 -11.02854 -11.02741
 Alpha  occ. eigenvalues --  -11.02019  -1.27700  -1.07529  -1.03320  -0.96447
 Alpha  occ. eigenvalues --   -0.94763  -0.88172  -0.87560  -0.79374  -0.78230
 Alpha  occ. eigenvalues --   -0.73345  -0.67055  -0.64252  -0.60786  -0.57955
 Alpha  occ. eigenvalues --   -0.56659  -0.56072  -0.54491  -0.52857  -0.51691
 Alpha  occ. eigenvalues --   -0.51368  -0.49680  -0.48976  -0.47860  -0.46248
 Alpha  occ. eigenvalues --   -0.45372  -0.43226  -0.42661  -0.41997  -0.40956
 Alpha  occ. eigenvalues --   -0.39139  -0.38410  -0.35881  -0.32816
 Alpha virt. eigenvalues --    0.52882   0.55920   0.58058   0.59427   0.61597
 Alpha virt. eigenvalues --    0.61715   0.62150   0.64926   0.66298   0.66439
 Alpha virt. eigenvalues --    0.67484   0.68622   0.70813   0.71889   0.72417

 Mulliken atomic charges:
              1
     1  C   -0.171486
     2  C   -0.022255
     3  C    0.074859
     4  C   -0.098892
     5  C   -0.030204
     6  C   -0.100931
     7  C   -0.112584
     8  O   -0.315036
     9  C   -0.017393
    10  C   -0.172300
    11  C   -0.173262
    12  H    0.054186
    13  H    0.053184
    14  H    0.052502
    15  H    0.044583
    16  H    0.041111
    17  H    0.056400
    18  H    0.044943
    19  H    0.046920
    20  H    0.054181
    21  H    0.048572
    22  H    0.047614
    23  H    0.049084
    24  H    0.175003
    25  H    0.047335
    26  H    0.060144
    27  H    0.058750
    28  H    0.049411
    29  H    0.051669
    30  H    0.050204
    31  H    0.053686
 Sum of Mulliken atomic charges =   0.00000

 Dipole moment (field-independent basis, Debye):
    X=              0.4816    Y=             -0.9064    Z=             -0.7809  Tot=              1.2897
 Quadrupole moment (field-independent basis, Debye-Ang):
   XX=            -68.5792   YY=            -64.1946   ZZ=            -68.6001
   XY=             -0.7679   XZ=              0.8992   YZ=             -1.5724

 Summary of Natural Population Analysis:

                                       Natural Population
                Natural  -----------------------------------------------
    Atom  No    Charge         Core      Valence    Rydberg      Total
 -----------------------------------------------------------------------
      C    1   -0.12660      1.99997     4.12663    0.00000     6.12660
      C    2    0.01604      1.99997     3.98399    0.00000     5.98396
      C    3    0.14298      1.99989     3.85713    0.00000     5.85702
      C    4   -0.06120      1.99995     4.06124    0.00000     6.06120
      C    5   -0.00878      1.99995     4.00883    0.00000     6.00878
      C    6   -0.06454      1.99996     4.06458    0.00000     6.06454
      C    7   -0.08747      1.99996     4.08751    0.00000     6.08747
      O    8   -0.33627      1.99999     6.33628    0.00000     8.33627
      C    9    0.02331      1.99996     3.97673    0.00000     5.97669
      C   10   -0.12915      1.99997     4.12918    0.00000     6.12915
      C   11   -0.12874      1.99997     4.12877    0.00000     6.12874
      H   12    0.03689      0.00000     0.96311    0.00000     0.96311
      H   13    0.03587      0.00000     0.96413    0.00000     0.96413
      H   14    0.03532      0.00000     0.96468    0.00000     0.96468
      H   15    0.02044      0.00000     0.97956    0.00000     0.97956
      H   16    0.00536      0.00000     0.99464    0.00000     0.99464
      H   17    0.03424      0.00000     0.96576    0.00000     0.96576
      H   18    0.02397      0.00000     0.97603    0.00000     0.97603
      H   19    0.02216      0.00000     0.97784    0.00000     0.97784
      H   20    0.03278      0.00000     0.96722    0.00000     0.96722
      H   21    0.02819      0.00000     0.97181    0.00000     0.97181
      H   22    0.02751      0.00000     0.97249    0.00000     0.97249
      H   23    0.02858      0.00000     0.97142    0.00000     0.97142
      H   24    0.18754      0.00000     0.81246    0.00000     0.81246
      H   25    0.02217      0.00000     0.97783    0.00000     0.97783
      H   26    0.04216      0.00000     0.95784    0.00000     0.95784
      H   27    0.04091      0.00000     0.95909    0.00000     0.95909
      H   28    0.03265      0.00000     0.96735    0.00000     0.96735
      H   29    0.03426      0.00000     0.96574    0.00000     0.96574
      H   30    0.03298      0.00000     0.96702    0.00000     0.96702
      H   31    0.03645      0.00000     0.96355    0.00000     0.96355
 =======================================================================
   * Total *    0.00000     21.99954    66.00046    0.00000    88.00000

 Normal termination of Gaussian 09 at Tue Aug  3 16:35:22 2021.
