 Gaussian 09, Revision C.01,
 Gaussian 09:  EM64L-G09RevC.01 23-Sep-2011

 ------------------------
 # rhf/STO-3G nmr pop=nbo
 ------------------------

 99/9=1/99;
 -------
 comment
 -------
 Charge =  0 Multiplicity = 1

                         Standard orientation:
 ---------------------------------------------------------------------
 Center     Atomic      Atomic             Coordinates (Angstroms)
 Number     Number       Type             X           Y           Z
 ---------------------------------------------------------------------
      1          6           0        2.861769   -0.166021    1.023858
      2          6           0        2.287246    0.529772   -0.212235
      3          6           0        0.249003   -0.931951   -0.881750
      4          6           0       -0.073026    1.125052    0.581498
      5          6           0       -0.689546    0.241619   -0.517601
      6          6           0        1.304756    1.644247    0.167759
      7          6           0        1.665556   -0.450761   -1.221921
      8          8           0        0.311776   -1.931485    0.125610
      9          6           0       -2.150303   -0.209786   -0.218410
     10          6           0       -3.131972    0.947958   -0.453320
     11          6           0       -2.391300   -0.778629    1.182852
     12          1           0        3.450842    0.543737    1.615547
     13          1           0        2.091140   -0.569653    1.683154
     14          1           0        3.528464   -0.985346    0.735434
     15          1           0        3.143249    1.003274   -0.712636
     16          1           0       -0.152227   -1.434089   -1.770331
     17          1           0        0.013927    0.576730    1.525301
     18          1           0       -0.720113    1.986949    0.779075
     19          1           0       -0.737374    0.862724   -1.425176
     20          1           0        1.722018    2.259742    0.973713
     21          1           0        1.180434    2.311285   -0.695448
     22          1           0        2.331190   -1.312767   -1.352705
     23          1           0        1.619259    0.061299   -2.192545
     24          1           0        0.430495   -1.501339    0.986136
     25          1           0       -2.412278   -0.992779   -0.942580
     26          1           0       -2.976028    1.763672    0.259581
     27          1           0       -3.024836    1.352993   -1.465093
     28          1           0       -4.166688    0.604324   -0.345722
     29          1           0       -2.199853   -0.035181    1.962997
     30          1           0       -1.773896   -1.656116    1.383806
     31          1           0       -3.435033   -1.096584    1.288230
 ---------------------------------------------------------------------

 SCF Done:  E(RHF) =  -459.614595153     A.U. after   10 cycles

      1  C    Isotropic =   221.6976   Anisotropy =    25.2103

      2  C    Isotropic =   217.1079   Anisotropy =     3.8308

      3  C    Isotropic =   188.4260   Anisotropy =    31.7715

      4  C    Isotropic =   223.3625   Anisotropy =    14.8760

      5  C    Isotropic =   209.6919   Anisotropy =    16.7742

      6  C    Isotropic =   217.1362   Anisotropy =    11.2553

      7  C    Isotropic =   215.2481   Anisotropy =     9.7184

      8  O    Isotropic =   363.9948   Anisotropy =    70.1345

      9  C    Isotropic =   212.9104   Anisotropy =    17.6447

     10  C    Isotropic =   220.1960   Anisotropy =    28.7561

     11  C    Isotropic =   223.6617   Anisotropy =    21.4283

     12  H    Isotropic =    32.5899   Anisotropy =    14.5482

     13  H    Isotropic =    33.1688   Anisotropy =     7.6015

     14  H    Isotropic =    32.4839   Anisotropy =    13.8920

     15  H    Isotropic =    32.4235   Anisotropy =    15.4355

     16  H    Isotropic =    31.3911   Anisotropy =    11.9151

     17  H    Isotropic =    33.3359   Anisotropy =     8.3472

     18  H    Isotropic =    32.7112   Anisotropy =    12.8723

     19  H    Isotropic =    32.8122   Anisotropy =    10.0123

     20  H    Isotropic =    32.5700   Anisotropy =    14.1356

     21  H    Isotropic =    32.6093   Anisotropy =    13.2941

     22  H    Isotropic =    32.0940   Anisotropy =    14.1883

     23  H    Isotropic =    32.4443   Anisotropy =    13.6251

     24  H    Isotropic =    35.1704   Anisotropy =    10.0856

     25  H    Isotropic =    32.2522   Anisotropy =    11.8532

     26  H    Isotropic =    32.5345   Anisotropy =     9.7941

     27  H    Isotropic =    32.5578   Anisotropy =    12.8196

     28  H    Isotropic =    32.4277   Anisotropy =    14.6001

     29  H    Isotropic =    32.9212   Anisotropy =     9.2939

     30  H    Isotropic =    32.4329   Anisotropy =    10.1409

     31  H    Isotropic =    32.5542   Anisotropy =    14.9010

 The electronic state is 1-A.
 Alpha  occ. eigenvalues --  -20.23536 -11.08487 -11.04854 -11.04814 -11.04496
 Alpha  occ. eigenvalues --  -11.04237 -11.04048 -11.03478 -11.03469 -11.03071
 Alpha  occ. eigenvalues --  -11.02883  -1.27962  -1.08204  -1.03882  -0.96972
 Alpha  occ. eigenvalues --   -0.95494  -0.88877  -0.88493  -0.80953  -0.78349
 Alpha  occ. eigenvalues --   -0.72715  -0.68765  -0.64143  -0.59525  -0.59387
 Alpha  occ. eigenvalues --   -0.57515  -0.56749  -0.54761  -0.53752  -0.52487
 Alpha  occ. eigenvalues --   -0.51967  -0.50277  -0.49840  -0.48623  -0.47425
 Alpha  occ. eigenvalues --   -0.45783  -0.43943  -0.43204  -0.42288  -0.41364
 Alpha  occ. eigenvalues --   -0.39789  -0.39560  -0.36343  -0.32280
 Alpha virt. eigenvalues --    0.53111   0.55780   0.57100   0.58433   0.60531
 Alpha virt. eigenvalues --    0.61068   0.61716   0.65134   0.65587   0.66070
 Alpha virt. eigenvalues --    0.66444   0.67954   0.70824   0.71339   0.72028

 Mulliken atomic charges:
              1
     1  C   -0.174155
     2  C   -0.027435
     3  C    0.076478
     4  C   -0.107048
     5  C   -0.042844
     6  C   -0.100928
     7  C   -0.113633
     8  O   -0.317452
     9  C   -0.019512
    10  C   -0.172278
    11  C   -0.179156
    12  H    0.054427
    13  H    0.045669
    14  H    0.058581
    15  H    0.050143
    16  H    0.056821
    17  H    0.043147
    18  H    0.054778
    19  H    0.048166
    20  H    0.051425
    21  H    0.048270
    22  H    0.059563
    23  H    0.048584
    24  H    0.180278
    25  H    0.051747
    26  H    0.051934
    27  H    0.051585
    28  H    0.054289
    29  H    0.051343
    30  H    0.061999
    31  H    0.055214
 Sum of Mulliken atomic charges =   0.00000

 Dipole moment (field-independent basis, Debye):
    X=              0.1256    Y=              1.5237    Z=              0.1357  Tot=              1.5349
 Quadrupole moment (field-independent basis, Debye-Ang):
   XX=            -67.3951   YY=            -72.4968   ZZ=            -65.8013
   XY=              0.5872   XZ=              0.2387   YZ=             -0.2731

 Summary of Natural Population Analysis:

                                       Natural Population
                Natural  -----------------------------------------------
    Atom  No    Charge         Core      Valence    Rydberg      Total
 -----------------------------------------------------------------------
      C    1   -0.12910      1.99997     4.12913    0.00000     6.12910
      C    2    0.01087      1.99997     3.98916    0.00000     5.98913
      C    3    0.14261      1.99989     3.85750    0.00000     5.85739
      C    4   -0.06924      1.99996     4.06928    0.00000     6.06924
      C    5   -0.02227      1.99995     4.02231    0.00000     6.02227
      C    6   -0.06329      1.99996     4.06333    0.00000     6.06329
      C    7   -0.09044      1.99996     4.09048    0.00000     6.09044
      O    8   -0.33807      1.99999     6.33807    0.00000     8.33807
      C    9    0.02172      1.99996     3.97832    0.00000     5.97828
      C   10   -0.12761      1.99997     4.12764    0.00000     6.12761
      C   11   -0.13562      1.99997     4.13566    0.00000     6.13562
      H   12    0.03726      0.00000     0.96274    0.00000     0.96274
      H   13    0.02876      0.00000     0.97124    0.00000     0.97124
      H   14    0.04102      0.00000     0.95898    0.00000     0.95898
      H   15    0.02596      0.00000     0.97404    0.00000     0.97404
      H   16    0.02148      0.00000     0.97852    0.00000     0.97852
      H   17    0.02290      0.00000     0.97710    0.00000     0.97710
      H   18    0.03401      0.00000     0.96599    0.00000     0.96599
      H   19    0.02374      0.00000     0.97626    0.00000     0.97626
      H   20    0.03058      0.00000     0.96942    0.00000     0.96942
      H   21    0.02751      0.00000     0.97249    0.00000     0.97249
      H   22    0.03847      0.00000     0.96153    0.00000     0.96153
      H   23    0.02866      0.00000     0.97134    0.00000     0.97134
      H   24    0.19225      0.00000     0.80775    0.00000     0.80775
      H   25    0.02605      0.00000     0.97395    0.00000     0.97395
      H   26    0.03434      0.00000     0.96566    0.00000     0.96566
      H   27    0.03412      0.00000     0.96588    0.00000     0.96588
      H   28    0.03682      0.00000     0.96318    0.00000     0.96318
      H   29    0.03439      0.00000     0.96561    0.00000     0.96561
      H   30    0.04363      0.00000     0.95637    0.00000     0.95637
      H   31    0.03847      0.00000     0.96153    0.00000     0.96153
 =======================================================================
   * Total *    0.00000     21.99955    66.00045    0.00000    88.00000

 Normal termination of Gaussian 09 at Tue Aug  3 16:34:48 2021.
