 Gaussian 09, Revision C.01,
 Gaussian 09:  EM64L-G09RevC.01 23-Sep-2011

 ------------------------
 # rhf/STO-3G nmr pop=nbo
 ------------------------

 99/9=1/99;
 -------
 comment
 -------
 Charge =  0 Multiplicity = 1

                         Standard orientation:
 ---------------------------------------------------------------------
 Center     Atomic      Atomic             Coordinates (Angstroms)
 Number     Number       Type             X           Y           Z
 ---------------------------------------------------------------------
      1          6           0       -3.634994   -0.466139   -0.070147
      2          6           0       -2.124781   -0.482777   -0.302025
      3          6           0       -0.120880    1.124092   -0.557705
      4          6           0        0.135449   -1.054926    0.730454
      5          6           0        0.651677   -0.205442   -0.449962
      6          6           0       -1.380343   -0.955758    0.947892
      7          6           0       -1.629628    0.902293   -0.760946
      8          8           0        0.066385    1.938320    0.598388
      9          6           0        2.200866   -0.043767   -0.482223
     10          6           0        2.897311   -1.407638   -0.580399
     11          6           0        2.810369    0.749460    0.676101
     12          1           0       -4.162765   -0.147464   -0.975202
     13          1           0       -3.997671   -1.464645    0.195727
     14          1           0       -3.906227    0.218517    0.740614
     15          1           0       -1.928034   -1.203033   -1.107826
     16          1           0        0.261986    1.706539   -1.403415
     17          1           0        0.633847   -0.786360    1.667710
     18          1           0        0.389265   -2.105802    0.542842
     19          1           0        0.405465   -0.765259   -1.365655
     20          1           0       -1.582185   -0.265118    1.776634
     21          1           0       -1.759037   -1.932691    1.272823
     22          1           0       -2.191096    1.694955   -0.250062
     23          1           0       -1.861413    0.997221   -1.829787
     24          1           0       -0.305343    1.478084    1.368025
     25          1           0        2.446468    0.500432   -1.404663
     26          1           0        2.788294   -1.985267    0.343211
     27          1           0        2.487984   -1.998476   -1.406472
     28          1           0        3.969399   -1.279913   -0.766448
     29          1           0        2.553927    0.322766    1.649595
     30          1           0        2.491918    1.794746    0.658611
     31          1           0        3.903872    0.757821    0.600391
 ---------------------------------------------------------------------

 SCF Done:  E(RHF) =  -459.610500492     A.U. after   10 cycles

      1  C    Isotropic =   221.2740   Anisotropy =    27.8618

      2  C    Isotropic =   217.1660   Anisotropy =     8.7797

      3  C    Isotropic =   188.5468   Anisotropy =    31.0937

      4  C    Isotropic =   221.7783   Anisotropy =    16.7263

      5  C    Isotropic =   211.8399   Anisotropy =    17.6667

      6  C    Isotropic =   218.0069   Anisotropy =    19.2929

      7  C    Isotropic =   213.1112   Anisotropy =    21.7456

      8  O    Isotropic =   352.5716   Anisotropy =    62.9898

      9  C    Isotropic =   212.8311   Anisotropy =    16.9900

     10  C    Isotropic =   220.7429   Anisotropy =    26.5846

     11  C    Isotropic =   224.3838   Anisotropy =    20.9263

     12  H    Isotropic =    32.4127   Anisotropy =    13.8515

     13  H    Isotropic =    32.5441   Anisotropy =    13.8184

     14  H    Isotropic =    32.8068   Anisotropy =    11.6325

     15  H    Isotropic =    32.7400   Anisotropy =    10.8014

     16  H    Isotropic =    31.3234   Anisotropy =    11.4247

     17  H    Isotropic =    32.7607   Anisotropy =    10.8653

     18  H    Isotropic =    32.4652   Anisotropy =    12.6202

     19  H    Isotropic =    32.6721   Anisotropy =     9.3962

     20  H    Isotropic =    33.2266   Anisotropy =    10.6795

     21  H    Isotropic =    32.4395   Anisotropy =    13.7670

     22  H    Isotropic =    32.5114   Anisotropy =    11.7224

     23  H    Isotropic =    32.0039   Anisotropy =    13.5680

     24  H    Isotropic =    35.1151   Anisotropy =    10.9752

     25  H    Isotropic =    32.3343   Anisotropy =    12.3947

     26  H    Isotropic =    32.5681   Anisotropy =     9.5615

     27  H    Isotropic =    32.5847   Anisotropy =    12.3412

     28  H    Isotropic =    32.4434   Anisotropy =    14.7467

     29  H    Isotropic =    32.7482   Anisotropy =     9.3381

     30  H    Isotropic =    31.9008   Anisotropy =    10.7985

     31  H    Isotropic =    32.6298   Anisotropy =    14.7953

 The electronic state is 1-A.
 Alpha  occ. eigenvalues --  -20.23430 -11.08497 -11.04975 -11.04590 -11.04353
 Alpha  occ. eigenvalues --  -11.04179 -11.03915 -11.03597 -11.03498 -11.02912
 Alpha  occ. eigenvalues --  -11.02225  -1.27740  -1.08162  -1.03738  -0.96987
 Alpha  occ. eigenvalues --   -0.95363  -0.88445  -0.88070  -0.80519  -0.78327
 Alpha  occ. eigenvalues --   -0.73773  -0.68348  -0.63156  -0.61070  -0.59132
 Alpha  occ. eigenvalues --   -0.58019  -0.54655  -0.54571  -0.53519  -0.52646
 Alpha  occ. eigenvalues --   -0.51828  -0.50451  -0.49205  -0.47588  -0.47210
 Alpha  occ. eigenvalues --   -0.46258  -0.43474  -0.43054  -0.42572  -0.42242
 Alpha  occ. eigenvalues --   -0.39848  -0.38725  -0.36125  -0.32305
 Alpha virt. eigenvalues --    0.52758   0.55766   0.57022   0.58074   0.60620
 Alpha virt. eigenvalues --    0.61626   0.61785   0.64020   0.64914   0.66330
 Alpha virt. eigenvalues --    0.67389   0.69596   0.71077   0.71275   0.71609

 Mulliken atomic charges:
              1
     1  C   -0.171771
     2  C   -0.024801
     3  C    0.075020
     4  C   -0.110323
     5  C   -0.039719
     6  C   -0.104626
     7  C   -0.116908
     8  O   -0.315520
     9  C   -0.017634
    10  C   -0.173049
    11  C   -0.177937
    12  H    0.055293
    13  H    0.054415
    14  H    0.053140
    15  H    0.047234
    16  H    0.058907
    17  H    0.050166
    18  H    0.053011
    19  H    0.046189
    20  H    0.040688
    21  H    0.053716
    22  H    0.058109
    23  H    0.052018
    24  H    0.177372
    25  H    0.047300
    26  H    0.053245
    27  H    0.050631
    28  H    0.054198
    29  H    0.049949
    30  H    0.070105
    31  H    0.051582
 Sum of Mulliken atomic charges =   0.00000

 Dipole moment (field-independent basis, Debye):
    X=             -0.6731    Y=             -1.3524    Z=             -0.1287  Tot=              1.5161
 Quadrupole moment (field-independent basis, Debye-Ang):
   XX=            -68.0624   YY=            -72.0732   ZZ=            -65.5285
   XY=             -0.7537   XZ=             -0.7604   YZ=             -0.7650

 Summary of Natural Population Analysis:

                                       Natural Population
                Natural  -----------------------------------------------
    Atom  No    Charge         Core      Valence    Rydberg      Total
 -----------------------------------------------------------------------
      C    1   -0.12699      1.99997     4.12702    0.00000     6.12699
      C    2    0.01332      1.99997     3.98671    0.00000     5.98668
      C    3    0.14162      1.99989     3.85849    0.00000     5.85838
      C    4   -0.07255      1.99995     4.07259    0.00000     6.07255
      C    5   -0.01950      1.99995     4.01955    0.00000     6.01950
      C    6   -0.06651      1.99996     4.06655    0.00000     6.06651
      C    7   -0.09274      1.99996     4.09279    0.00000     6.09274
      O    8   -0.33654      1.99999     6.33655    0.00000     8.33654
      C    9    0.02389      1.99996     3.97615    0.00000     5.97611
      C   10   -0.12870      1.99997     4.12873    0.00000     6.12870
      C   11   -0.13508      1.99997     4.13511    0.00000     6.13508
      H   12    0.03791      0.00000     0.96209    0.00000     0.96209
      H   13    0.03707      0.00000     0.96293    0.00000     0.96293
      H   14    0.03582      0.00000     0.96418    0.00000     0.96418
      H   15    0.02308      0.00000     0.97692    0.00000     0.97692
      H   16    0.02351      0.00000     0.97649    0.00000     0.97649
      H   17    0.02915      0.00000     0.97085    0.00000     0.97085
      H   18    0.03222      0.00000     0.96778    0.00000     0.96778
      H   19    0.02181      0.00000     0.97819    0.00000     0.97819
      H   20    0.02064      0.00000     0.97936    0.00000     0.97936
      H   21    0.03309      0.00000     0.96691    0.00000     0.96691
      H   22    0.03725      0.00000     0.96275    0.00000     0.96275
      H   23    0.03173      0.00000     0.96827    0.00000     0.96827
      H   24    0.18934      0.00000     0.81066    0.00000     0.81066
      H   25    0.02197      0.00000     0.97803    0.00000     0.97803
      H   26    0.03569      0.00000     0.96431    0.00000     0.96431
      H   27    0.03334      0.00000     0.96666    0.00000     0.96666
      H   28    0.03688      0.00000     0.96312    0.00000     0.96312
      H   29    0.03317      0.00000     0.96683    0.00000     0.96683
      H   30    0.05109      0.00000     0.94891    0.00000     0.94891
      H   31    0.03501      0.00000     0.96499    0.00000     0.96499
 =======================================================================
   * Total *    0.00000     21.99955    66.00045    0.00000    88.00000

 Normal termination of Gaussian 09 at Tue Aug  3 16:35:31 2021.
