 Gaussian 09, Revision C.01,
 Gaussian 09:  EM64L-G09RevC.01 23-Sep-2011

 ------------------------
 # rhf/STO-3G nmr pop=nbo
 ------------------------

 99/9=1/99;
 -------
 comment
 -------
 Charge =  0 Multiplicity = 1

                         Standard orientation:
 ---------------------------------------------------------------------
 Center     Atomic      Atomic             Coordinates (Angstroms)
 Number     Number       Type             X           Y           Z
 ---------------------------------------------------------------------
      1          6           0        3.642509    0.264480   -0.481331
      2          6           0        2.115467    0.294840   -0.518174
      3          6           0        0.049424   -1.170032   -0.042216
      4          6           0        0.031354    1.312429    0.513501
      5          6           0       -0.678828    0.173146   -0.256241
      6          6           0        1.554949    1.182598    0.589453
      7          6           0        1.541265   -1.126199   -0.411338
      8          8           0       -0.091862   -1.599110    1.312763
      9          6           0       -2.196244    0.120604    0.105183
     10          6           0       -2.936139   -0.994955   -0.642943
     11          6           0       -2.898745    1.453509   -0.188612
     12          1           0        4.053499    1.271297   -0.610379
     13          1           0        4.011070   -0.130934    0.471303
     14          1           0        4.037347   -0.364745   -1.285937
     15          1           0        1.818874    0.719840   -1.486573
     16          1           0       -0.411750   -1.951888   -0.653972
     17          1           0       -0.359228    1.392267    1.535781
     18          1           0       -0.206327    2.264248    0.021533
     19          1           0       -0.605432    0.408134   -1.328217
     20          1           0        1.833161    0.768235    1.567183
     21          1           0        2.002781    2.182982    0.546696
     22          1           0        2.118386   -1.716160    0.312248
     23          1           0        1.679704   -1.612089   -1.386097
     24          1           0        0.367598   -0.962637    1.884931
     25          1           0       -2.299813   -0.076130    1.180212
     26          1           0       -2.786900   -0.912944   -1.724759
     27          1           0       -2.599301   -1.984860   -0.321512
     28          1           0       -4.013055   -0.949851   -0.446404
     29          1           0       -2.777067    1.741529   -1.238269
     30          1           0       -2.506705    2.261190    0.436663
     31          1           0       -3.972012    1.382877    0.019777
 ---------------------------------------------------------------------

 SCF Done:  E(RHF) =  -459.611887778     A.U. after   10 cycles

      1  C    Isotropic =   221.2783   Anisotropy =    28.0108

      2  C    Isotropic =   217.4381   Anisotropy =     8.3202

      3  C    Isotropic =   190.4001   Anisotropy =    34.8848

      4  C    Isotropic =   218.5647   Anisotropy =    18.4938

      5  C    Isotropic =   210.8367   Anisotropy =    19.7535

      6  C    Isotropic =   218.1250   Anisotropy =    18.2306

      7  C    Isotropic =   213.3416   Anisotropy =    22.3413

      8  O    Isotropic =   352.2845   Anisotropy =    63.5820

      9  C    Isotropic =   212.6001   Anisotropy =    18.0713

     10  C    Isotropic =   221.6187   Anisotropy =    24.8684

     11  C    Isotropic =   221.2191   Anisotropy =    25.4627

     12  H    Isotropic =    32.5430   Anisotropy =    13.8171

     13  H    Isotropic =    32.8091   Anisotropy =    11.7512

     14  H    Isotropic =    32.4340   Anisotropy =    13.7612

     15  H    Isotropic =    32.8285   Anisotropy =    10.6394

     16  H    Isotropic =    31.2171   Anisotropy =    10.7749

     17  H    Isotropic =    32.7610   Anisotropy =    10.9227

     18  H    Isotropic =    32.2643   Anisotropy =    12.1040

     19  H    Isotropic =    32.8779   Anisotropy =     8.6926

     20  H    Isotropic =    33.1870   Anisotropy =    10.9747

     21  H    Isotropic =    32.4509   Anisotropy =    13.7935

     22  H    Isotropic =    32.5603   Anisotropy =    11.5407

     23  H    Isotropic =    32.0231   Anisotropy =    13.3740

     24  H    Isotropic =    35.1061   Anisotropy =    12.1067

     25  H    Isotropic =    32.3141   Anisotropy =     9.5095

     26  H    Isotropic =    32.6766   Anisotropy =    11.2531

     27  H    Isotropic =    32.0211   Anisotropy =    10.7246

     28  H    Isotropic =    32.4648   Anisotropy =    14.4768

     29  H    Isotropic =    32.6776   Anisotropy =    11.1756

     30  H    Isotropic =    32.4196   Anisotropy =    10.7332

     31  H    Isotropic =    32.4824   Anisotropy =    14.4342

 The electronic state is 1-A.
 Alpha  occ. eigenvalues --  -20.23467 -11.08343 -11.04946 -11.04554 -11.04379
 Alpha  occ. eigenvalues --  -11.04098 -11.03855 -11.03621 -11.03463 -11.02927
 Alpha  occ. eigenvalues --  -11.02624  -1.27678  -1.08195  -1.03835  -0.97085
 Alpha  occ. eigenvalues --   -0.95154  -0.88641  -0.88126  -0.79701  -0.78463
 Alpha  occ. eigenvalues --   -0.74061  -0.68936  -0.63954  -0.60355  -0.58977
 Alpha  occ. eigenvalues --   -0.57050  -0.55454  -0.54301  -0.53274  -0.52742
 Alpha  occ. eigenvalues --   -0.51532  -0.50863  -0.50097  -0.47600  -0.46892
 Alpha  occ. eigenvalues --   -0.46065  -0.43857  -0.42946  -0.42562  -0.42193
 Alpha  occ. eigenvalues --   -0.39655  -0.38919  -0.35902  -0.32738
 Alpha virt. eigenvalues --    0.52489   0.55907   0.57012   0.57848   0.61141
 Alpha virt. eigenvalues --    0.61606   0.61761   0.63900   0.65432   0.66405
 Alpha virt. eigenvalues --    0.67041   0.69878   0.70276   0.71921   0.72229

 Mulliken atomic charges:
              1
     1  C   -0.171770
     2  C   -0.024344
     3  C    0.072435
     4  C   -0.108543
     5  C   -0.039420
     6  C   -0.104637
     7  C   -0.116557
     8  O   -0.314450
     9  C   -0.017752
    10  C   -0.174436
    11  C   -0.173820
    12  H    0.054322
    13  H    0.053149
    14  H    0.055030
    15  H    0.047414
    16  H    0.061067
    17  H    0.047893
    18  H    0.052710
    19  H    0.045441
    20  H    0.041080
    21  H    0.053341
    22  H    0.057919
    23  H    0.052177
    24  H    0.175188
    25  H    0.053193
    26  H    0.049834
    27  H    0.059859
    28  H    0.053971
    29  H    0.051245
    30  H    0.053800
    31  H    0.054661
 Sum of Mulliken atomic charges =   0.00000

 Dipole moment (field-independent basis, Debye):
    X=              0.7041    Y=              1.2505    Z=             -0.5034  Tot=              1.5208
 Quadrupole moment (field-independent basis, Debye-Ang):
   XX=            -68.0006   YY=            -71.0659   ZZ=            -66.6117
   XY=             -0.7936   XZ=              1.0098   YZ=              2.3698

 Summary of Natural Population Analysis:

                                       Natural Population
                Natural  -----------------------------------------------
    Atom  No    Charge         Core      Valence    Rydberg      Total
 -----------------------------------------------------------------------
      C    1   -0.12680      1.99997     4.12683    0.00000     6.12680
      C    2    0.01328      1.99997     3.98675    0.00000     5.98672
      C    3    0.13873      1.99989     3.86138    0.00000     5.86127
      C    4   -0.07066      1.99995     4.07070    0.00000     6.07066
      C    5   -0.01802      1.99995     4.01807    0.00000     6.01802
      C    6   -0.06757      1.99996     4.06761    0.00000     6.06757
      C    7   -0.09271      1.99996     4.09275    0.00000     6.09271
      O    8   -0.33526      1.99999     6.33526    0.00000     8.33526
      C    9    0.02359      1.99996     3.97645    0.00000     5.97641
      C   10   -0.13061      1.99997     4.13065    0.00000     6.13061
      C   11   -0.12960      1.99997     4.12963    0.00000     6.12960
      H   12    0.03699      0.00000     0.96301    0.00000     0.96301
      H   13    0.03585      0.00000     0.96415    0.00000     0.96415
      H   14    0.03766      0.00000     0.96234    0.00000     0.96234
      H   15    0.02352      0.00000     0.97648    0.00000     0.97648
      H   16    0.02539      0.00000     0.97461    0.00000     0.97461
      H   17    0.02719      0.00000     0.97281    0.00000     0.97281
      H   18    0.03184      0.00000     0.96816    0.00000     0.96816
      H   19    0.02062      0.00000     0.97938    0.00000     0.97938
      H   20    0.02127      0.00000     0.97873    0.00000     0.97873
      H   21    0.03295      0.00000     0.96705    0.00000     0.96705
      H   22    0.03738      0.00000     0.96262    0.00000     0.96262
      H   23    0.03196      0.00000     0.96804    0.00000     0.96804
      H   24    0.18725      0.00000     0.81275    0.00000     0.81275
      H   25    0.02693      0.00000     0.97307    0.00000     0.97307
      H   26    0.03278      0.00000     0.96722    0.00000     0.96722
      H   27    0.04175      0.00000     0.95825    0.00000     0.95825
      H   28    0.03687      0.00000     0.96313    0.00000     0.96313
      H   29    0.03395      0.00000     0.96605    0.00000     0.96605
      H   30    0.03613      0.00000     0.96387    0.00000     0.96387
      H   31    0.03735      0.00000     0.96265    0.00000     0.96265
 =======================================================================
   * Total *    0.00000     21.99955    66.00045    0.00000    88.00000

 Normal termination of Gaussian 09 at Tue Aug  3 16:34:50 2021.
