 Gaussian 09, Revision C.01,
 Gaussian 09:  EM64L-G09RevC.01 23-Sep-2011

 ------------------------
 # rhf/STO-3G nmr pop=nbo
 ------------------------

 99/9=1/99;
 -------
 comment
 -------
 Charge =  0 Multiplicity = 1

                         Standard orientation:
 ---------------------------------------------------------------------
 Center     Atomic      Atomic             Coordinates (Angstroms)
 Number     Number       Type             X           Y           Z
 ---------------------------------------------------------------------
      1          6           0        3.227745   -0.248001   -1.018690
      2          6           0        2.150044   -0.056600    0.046582
      3          6           0        0.062830    1.233029    0.669442
      4          6           0        0.209564   -1.172513    1.249625
      5          6           0       -0.766914   -0.070774    0.778646
      6          6           0        1.380302   -1.364751    0.283000
      7          6           0        1.213080    1.099587   -0.329585
      8          8           0       -0.725563    2.363008    0.331018
      9          6           0       -1.565444   -0.478413   -0.508106
     10          6           0       -2.590430    0.575200   -0.946538
     11          6           0       -2.311233   -1.809164   -0.317797
     12          1           0        3.807539    0.671090   -1.153978
     13          1           0        3.922772   -1.043273   -0.729447
     14          1           0        2.788499   -0.516817   -1.985360
     15          1           0        2.653508    0.210855    0.985651
     16          1           0        0.494260    1.454282    1.654714
     17          1           0       -0.304643   -2.124978    1.408465
     18          1           0        0.610205   -0.893006    2.233543
     19          1           0       -1.511064    0.080112    1.573301
     20          1           0        1.013851   -1.765805   -0.669302
     21          1           0        2.061694   -2.119916    0.693738
     22          1           0        0.817369    0.967352   -1.344296
     23          1           0        1.776845    2.041012   -0.361670
     24          1           0       -1.428582    2.439309    0.998469
     25          1           0       -0.870652   -0.617646   -1.344256
     26          1           0       -3.215862    0.896795   -0.107400
     27          1           0       -2.102093    1.451344   -1.380829
     28          1           0       -3.252585    0.181599   -1.726050
     29          1           0       -2.951098   -1.780805    0.570479
     30          1           0       -1.617411   -2.648981   -0.220207
     31          1           0       -2.945314   -2.032187   -1.183183
 ---------------------------------------------------------------------

 SCF Done:  E(RHF) =  -459.617660770     A.U. after   10 cycles

      1  C    Isotropic =   221.1944   Anisotropy =    28.0233

      2  C    Isotropic =   214.5744   Anisotropy =     8.1361

      3  C    Isotropic =   186.4066   Anisotropy =    40.3528

      4  C    Isotropic =   217.0049   Anisotropy =    14.7107

      5  C    Isotropic =   208.5848   Anisotropy =    11.2934

      6  C    Isotropic =   217.8436   Anisotropy =    18.3486

      7  C    Isotropic =   217.2282   Anisotropy =    21.9127

      8  O    Isotropic =   355.7771   Anisotropy =    89.2575

      9  C    Isotropic =   215.2385   Anisotropy =    13.2924

     10  C    Isotropic =   221.0880   Anisotropy =    25.6721

     11  C    Isotropic =   220.7880   Anisotropy =    26.3765

     12  H    Isotropic =    32.3621   Anisotropy =    14.0238

     13  H    Isotropic =    32.4171   Anisotropy =    14.0629

     14  H    Isotropic =    32.6217   Anisotropy =    10.9276

     15  H    Isotropic =    32.7244   Anisotropy =    12.1563

     16  H    Isotropic =    31.9420   Anisotropy =     9.9066

     17  H    Isotropic =    32.3465   Anisotropy =    12.5526

     18  H    Isotropic =    32.7236   Anisotropy =    13.2664

     19  H    Isotropic =    33.0900   Anisotropy =    11.6271

     20  H    Isotropic =    32.7846   Anisotropy =     8.7921

     21  H    Isotropic =    32.5358   Anisotropy =    14.5748

     22  H    Isotropic =    32.4133   Anisotropy =     8.2673

     23  H    Isotropic =    32.0158   Anisotropy =    13.9204

     24  H    Isotropic =    35.0557   Anisotropy =    17.2334

     25  H    Isotropic =    32.5285   Anisotropy =     8.6234

     26  H    Isotropic =    32.8679   Anisotropy =    11.2325

     27  H    Isotropic =    31.7711   Anisotropy =     9.9472

     28  H    Isotropic =    32.6085   Anisotropy =    14.2230

     29  H    Isotropic =    32.6800   Anisotropy =    11.8843

     30  H    Isotropic =    32.4051   Anisotropy =    10.5486

     31  H    Isotropic =    32.5674   Anisotropy =    14.0889

 The electronic state is 1-A.
 Alpha  occ. eigenvalues --  -20.23797 -11.08508 -11.04781 -11.04591 -11.04402
 Alpha  occ. eigenvalues --  -11.03770 -11.03698 -11.03586 -11.03168 -11.02942
 Alpha  occ. eigenvalues --  -11.02374  -1.27954  -1.08333  -1.03284  -0.97117
 Alpha  occ. eigenvalues --   -0.94811  -0.88397  -0.87947  -0.79136  -0.77489
 Alpha  occ. eigenvalues --   -0.74921  -0.69260  -0.62652  -0.60530  -0.58364
 Alpha  occ. eigenvalues --   -0.57233  -0.56888  -0.54740  -0.54072  -0.51659
 Alpha  occ. eigenvalues --   -0.50873  -0.49789  -0.49191  -0.47761  -0.47155
 Alpha  occ. eigenvalues --   -0.46007  -0.43576  -0.42968  -0.41953  -0.41312
 Alpha  occ. eigenvalues --   -0.39908  -0.38768  -0.36568  -0.32622
 Alpha virt. eigenvalues --    0.52024   0.55432   0.58001   0.60524   0.61136
 Alpha virt. eigenvalues --    0.61846   0.62967   0.64347   0.65162   0.66279
 Alpha virt. eigenvalues --    0.69659   0.69942   0.70338   0.71862   0.72846

 Mulliken atomic charges:
              1
     1  C   -0.171714
     2  C   -0.022916
     3  C    0.078800
     4  C   -0.102530
     5  C   -0.040970
     6  C   -0.101502
     7  C   -0.107131
     8  O   -0.312779
     9  C   -0.021734
    10  C   -0.176193
    11  C   -0.173062
    12  H    0.055064
    13  H    0.054057
    14  H    0.053671
    15  H    0.046409
    16  H    0.037838
    17  H    0.053711
    18  H    0.046427
    19  H    0.039025
    20  H    0.049150
    21  H    0.050563
    22  H    0.055476
    23  H    0.058458
    24  H    0.177423
    25  H    0.048136
    26  H    0.046529
    27  H    0.069511
    28  H    0.051592
    29  H    0.051306
    30  H    0.052871
    31  H    0.054514
 Sum of Mulliken atomic charges =   0.00000

 Dipole moment (field-independent basis, Debye):
    X=             -0.0568    Y=             -0.9128    Z=              1.0022  Tot=              1.3568
 Quadrupole moment (field-independent basis, Debye-Ang):
   XX=            -66.6584   YY=            -71.4968   ZZ=            -65.8316
   XY=             -0.3885   XZ=             -1.1183   YZ=              2.3727

 Summary of Natural Population Analysis:

                                       Natural Population
                Natural  -----------------------------------------------
    Atom  No    Charge         Core      Valence    Rydberg      Total
 -----------------------------------------------------------------------
      C    1   -0.12727      1.99997     4.12729    0.00000     6.12727
      C    2    0.01636      1.99997     3.98367    0.00000     5.98364
      C    3    0.14540      1.99989     3.85471    0.00000     5.85460
      C    4   -0.06442      1.99995     4.06447    0.00000     6.06442
      C    5   -0.01764      1.99995     4.01769    0.00000     6.01764
      C    6   -0.06412      1.99996     4.06416    0.00000     6.06412
      C    7   -0.08366      1.99996     4.08370    0.00000     6.08366
      O    8   -0.33371      1.99999     6.33371    0.00000     8.33371
      C    9    0.02054      1.99995     3.97951    0.00000     5.97946
      C   10   -0.13280      1.99997     4.13283    0.00000     6.13280
      C   11   -0.12851      1.99997     4.12854    0.00000     6.12851
      H   12    0.03771      0.00000     0.96229    0.00000     0.96229
      H   13    0.03681      0.00000     0.96319    0.00000     0.96319
      H   14    0.03636      0.00000     0.96364    0.00000     0.96364
      H   15    0.02207      0.00000     0.97793    0.00000     0.97793
      H   16    0.00237      0.00000     0.99763    0.00000     0.99763
      H   17    0.03190      0.00000     0.96810    0.00000     0.96810
      H   18    0.02558      0.00000     0.97442    0.00000     0.97442
      H   19    0.01380      0.00000     0.98620    0.00000     0.98620
      H   20    0.02807      0.00000     0.97193    0.00000     0.97193
      H   21    0.02992      0.00000     0.97008    0.00000     0.97008
      H   22    0.03438      0.00000     0.96562    0.00000     0.96562
      H   23    0.03746      0.00000     0.96254    0.00000     0.96254
      H   24    0.19011      0.00000     0.80989    0.00000     0.80989
      H   25    0.02212      0.00000     0.97788    0.00000     0.97788
      H   26    0.03003      0.00000     0.96997    0.00000     0.96997
      H   27    0.05027      0.00000     0.94973    0.00000     0.94973
      H   28    0.03464      0.00000     0.96536    0.00000     0.96536
      H   29    0.03393      0.00000     0.96607    0.00000     0.96607
      H   30    0.03515      0.00000     0.96485    0.00000     0.96485
      H   31    0.03715      0.00000     0.96285    0.00000     0.96285
 =======================================================================
   * Total *    0.00000     21.99954    66.00046    0.00000    88.00000

 Normal termination of Gaussian 09 at Tue Aug  3 16:35:54 2021.
