 Gaussian 09, Revision C.01,
 Gaussian 09:  EM64L-G09RevC.01 23-Sep-2011

 ------------------------
 # rhf/STO-3G nmr pop=nbo
 ------------------------

 99/9=1/99;
 -------
 comment
 -------
 Charge =  0 Multiplicity = 1

                         Standard orientation:
 ---------------------------------------------------------------------
 Center     Atomic      Atomic             Coordinates (Angstroms)
 Number     Number       Type             X           Y           Z
 ---------------------------------------------------------------------
      1          6           0        2.851046   -0.195022    1.024311
      2          6           0        2.339542    0.052908   -0.396560
      3          6           0       -0.024291   -1.022557   -0.408302
      4          6           0        0.256254    1.464366    0.057354
      5          6           0       -0.644470    0.383233   -0.570269
      6          6           0        1.667326    1.424494   -0.528990
      7          6           0        1.425349   -1.072011   -0.911132
      8          8           0       -0.080395   -1.505978    0.926590
      9          6           0       -2.127541    0.532349   -0.118294
     10          6           0       -2.380193    0.439496    1.388330
     11          6           0       -3.045488   -0.451329   -0.852035
     12          1           0        3.300227   -1.190151    1.108015
     13          1           0        3.625170    0.537322    1.279540
     14          1           0        2.067913   -0.110950    1.780117
     15          1           0        3.231083    0.060409   -1.038678
     16          1           0       -0.596497   -1.738429   -1.008634
     17          1           0        0.313300    1.351545    1.144557
     18          1           0       -0.173097    2.455877   -0.131678
     19          1           0       -0.646468    0.585353   -1.652854
     20          1           0        2.284031    2.197302   -0.054778
     21          1           0        1.610412    1.686564   -1.593642
     22          1           0        1.870792   -2.044641   -0.668365
     23          1           0        1.400627   -1.001806   -2.007012
     24          1           0        0.146314   -0.783430    1.532106
     25          1           0       -2.443594    1.540062   -0.423462
     26          1           0       -2.209427   -0.568649    1.774913
     27          1           0       -1.757012    1.139528    1.950884
     28          1           0       -3.423563    0.692636    1.609954
     29          1           0       -2.872113   -1.483652   -0.531780
     30          1           0       -2.893124   -0.396146   -1.934932
     31          1           0       -4.097014   -0.216480   -0.653476
 ---------------------------------------------------------------------

 SCF Done:  E(RHF) =  -459.614298633     A.U. after   10 cycles

      1  C    Isotropic =   221.7519   Anisotropy =    25.1211

      2  C    Isotropic =   217.0492   Anisotropy =     3.9911

      3  C    Isotropic =   190.9696   Anisotropy =    38.1496

      4  C    Isotropic =   221.1545   Anisotropy =    17.2583

      5  C    Isotropic =   210.3169   Anisotropy =    16.0370

      6  C    Isotropic =   217.0274   Anisotropy =    10.6923

      7  C    Isotropic =   215.2436   Anisotropy =    10.2514

      8  O    Isotropic =   363.8435   Anisotropy =    69.6331

      9  C    Isotropic =   212.8009   Anisotropy =    17.9825

     10  C    Isotropic =   224.1264   Anisotropy =    20.6245

     11  C    Isotropic =   221.5033   Anisotropy =    25.7919

     12  H    Isotropic =    32.4682   Anisotropy =    13.8351

     13  H    Isotropic =    32.5991   Anisotropy =    14.6244

     14  H    Isotropic =    33.1236   Anisotropy =     7.5420

     15  H    Isotropic =    32.4229   Anisotropy =    15.4807

     16  H    Isotropic =    31.3848   Anisotropy =    11.0388

     17  H    Isotropic =    33.1830   Anisotropy =     8.3572

     18  H    Isotropic =    32.7198   Anisotropy =    13.4984

     19  H    Isotropic =    32.7524   Anisotropy =    10.3783

     20  H    Isotropic =    32.5473   Anisotropy =    14.3643

     21  H    Isotropic =    32.5682   Anisotropy =    13.4471

     22  H    Isotropic =    32.0832   Anisotropy =    14.0084

     23  H    Isotropic =    32.4951   Anisotropy =    13.5808

     24  H    Isotropic =    35.2252   Anisotropy =    10.1968

     25  H    Isotropic =    32.5180   Anisotropy =    12.4338

     26  H    Isotropic =    32.4537   Anisotropy =     9.0549

     27  H    Isotropic =    32.8431   Anisotropy =    10.2511

     28  H    Isotropic =    32.5798   Anisotropy =    14.9922

     29  H    Isotropic =    32.2490   Anisotropy =     9.6154

     30  H    Isotropic =    32.5334   Anisotropy =    12.7131

     31  H    Isotropic =    32.3847   Anisotropy =    14.7943

 The electronic state is 1-A.
 Alpha  occ. eigenvalues --  -20.23476 -11.08501 -11.04891 -11.04783 -11.04577
 Alpha  occ. eigenvalues --  -11.04206 -11.03996 -11.03443 -11.03369 -11.02914
 Alpha  occ. eigenvalues --  -11.02865  -1.27908  -1.08166  -1.03860  -0.97104
 Alpha  occ. eigenvalues --   -0.95364  -0.88904  -0.88439  -0.79926  -0.79298
 Alpha  occ. eigenvalues --   -0.72852  -0.68591  -0.63762  -0.60899  -0.58280
 Alpha  occ. eigenvalues --   -0.57640  -0.56143  -0.54841  -0.54073  -0.52144
 Alpha  occ. eigenvalues --   -0.51611  -0.50322  -0.49676  -0.48478  -0.47853
 Alpha  occ. eigenvalues --   -0.46095  -0.43890  -0.43380  -0.42126  -0.41276
 Alpha  occ. eigenvalues --   -0.39658  -0.39317  -0.36226  -0.32358
 Alpha virt. eigenvalues --    0.53236   0.55749   0.57489   0.57911   0.60316
 Alpha virt. eigenvalues --    0.61144   0.62191   0.64978   0.65648   0.66275
 Alpha virt. eigenvalues --    0.66746   0.68385   0.70598   0.71238   0.72027

 Mulliken atomic charges:
              1
     1  C   -0.173886
     2  C   -0.027149
     3  C    0.074244
     4  C   -0.105921
     5  C   -0.043148
     6  C   -0.101129
     7  C   -0.112306
     8  O   -0.317773
     9  C   -0.018474
    10  C   -0.180648
    11  C   -0.173960
    12  H    0.058450
    13  H    0.053916
    14  H    0.046314
    15  H    0.049886
    16  H    0.058760
    17  H    0.042370
    18  H    0.053659
    19  H    0.047834
    20  H    0.051300
    21  H    0.048056
    22  H    0.059673
    23  H    0.048160
    24  H    0.180839
    25  H    0.046979
    26  H    0.065058
    27  H    0.050146
    28  H    0.054447
    29  H    0.059043
    30  H    0.051149
    31  H    0.054113
 Sum of Mulliken atomic charges =   0.00000

 Dipole moment (field-independent basis, Debye):
    X=              0.3588    Y=              1.4255    Z=             -0.5135  Tot=              1.5571
 Quadrupole moment (field-independent basis, Debye-Ang):
   XX=            -67.4255   YY=            -70.8072   ZZ=            -66.8040
   XY=             -0.6182   XZ=              0.3478   YZ=              1.9347

 Summary of Natural Population Analysis:

                                       Natural Population
                Natural  -----------------------------------------------
    Atom  No    Charge         Core      Valence    Rydberg      Total
 -----------------------------------------------------------------------
      C    1   -0.12893      1.99997     4.12896    0.00000     6.12893
      C    2    0.01105      1.99997     3.98899    0.00000     5.98895
      C    3    0.14037      1.99989     3.85974    0.00000     5.85963
      C    4   -0.06798      1.99996     4.06803    0.00000     6.06798
      C    5   -0.02220      1.99995     4.02225    0.00000     6.02220
      C    6   -0.06376      1.99996     4.06380    0.00000     6.06376
      C    7   -0.08885      1.99996     4.08889    0.00000     6.08885
      O    8   -0.33841      1.99999     6.33842    0.00000     8.33841
      C    9    0.02282      1.99996     3.97722    0.00000     5.97718
      C   10   -0.13737      1.99997     4.13740    0.00000     6.13737
      C   11   -0.13008      1.99997     4.13011    0.00000     6.13008
      H   12    0.04091      0.00000     0.95909    0.00000     0.95909
      H   13    0.03676      0.00000     0.96324    0.00000     0.96324
      H   14    0.02935      0.00000     0.97065    0.00000     0.97065
      H   15    0.02574      0.00000     0.97426    0.00000     0.97426
      H   16    0.02321      0.00000     0.97679    0.00000     0.97679
      H   17    0.02202      0.00000     0.97798    0.00000     0.97798
      H   18    0.03299      0.00000     0.96701    0.00000     0.96701
      H   19    0.02348      0.00000     0.97652    0.00000     0.97652
      H   20    0.03052      0.00000     0.96948    0.00000     0.96948
      H   21    0.02737      0.00000     0.97263    0.00000     0.97263
      H   22    0.03852      0.00000     0.96148    0.00000     0.96148
      H   23    0.02816      0.00000     0.97184    0.00000     0.97184
      H   24    0.19279      0.00000     0.80721    0.00000     0.80721
      H   25    0.02178      0.00000     0.97822    0.00000     0.97822
      H   26    0.04662      0.00000     0.95338    0.00000     0.95338
      H   27    0.03333      0.00000     0.96667    0.00000     0.96667
      H   28    0.03783      0.00000     0.96217    0.00000     0.96217
      H   29    0.04103      0.00000     0.95897    0.00000     0.95897
      H   30    0.03399      0.00000     0.96601    0.00000     0.96601
      H   31    0.03695      0.00000     0.96305    0.00000     0.96305
 =======================================================================
   * Total *    0.00000     21.99955    66.00045    0.00000    88.00000

 Normal termination of Gaussian 09 at Tue Aug  3 16:35:05 2021.
