 Gaussian 09, Revision C.01,
 Gaussian 09:  EM64L-G09RevC.01 23-Sep-2011

 ------------------------
 # rhf/STO-3G nmr pop=nbo
 ------------------------

 99/9=1/99;
 -------
 comment
 -------
 Charge =  0 Multiplicity = 1

                         Standard orientation:
 ---------------------------------------------------------------------
 Center     Atomic      Atomic             Coordinates (Angstroms)
 Number     Number       Type             X           Y           Z
 ---------------------------------------------------------------------
      1          6           0       -3.036699   -0.570517    1.083887
      2          6           0       -2.266878   -0.080300   -0.143621
      3          6           0       -0.131586    1.165747   -0.715005
      4          6           0       -0.095273   -1.377284   -0.398425
      5          6           0        0.740977   -0.118402   -0.725534
      6          6           0       -1.544583   -1.237605   -0.854606
      7          6           0       -1.311283    1.057925    0.249853
      8          8           0        0.642091    2.322723   -0.425414
      9          6           0        2.069497   -0.035538    0.085845
     10          6           0        2.939081   -1.281099   -0.128763
     11          6           0        1.883198    0.200461    1.587413
     12          1           0       -3.781216   -1.322147    0.800932
     13          1           0       -2.365316   -1.021049    1.822607
     14          1           0       -3.566087    0.258206    1.565973
     15          1           0       -3.007540    0.321080   -0.848239
     16          1           0       -0.532182    1.312148   -1.726951
     17          1           0       -0.086694   -1.588153    0.676110
     18          1           0        0.351700   -2.249275   -0.890769
     19          1           0        1.058110   -0.228583   -1.774424
     20          1           0       -2.078819   -2.182645   -0.701767
     21          1           0       -1.554138   -1.054292   -1.937118
     22          1           0       -0.935415    0.916497    1.270629
     23          1           0       -1.863454    2.005944    0.281039
     24          1           0        0.048862    3.092170   -0.462291
     25          1           0        2.645759    0.812292   -0.308202
     26          1           0        2.490119   -2.173038    0.319998
     27          1           0        3.091146   -1.472333   -1.196147
     28          1           0        3.926040   -1.143331    0.326436
     29          1           0        1.338446   -0.617346    2.067856
     30          1           0        1.348033    1.132166    1.787843
     31          1           0        2.857212    0.279578    2.083532
 ---------------------------------------------------------------------

 SCF Done:  E(RHF) =  -459.609898060     A.U. after   10 cycles

      1  C    Isotropic =   221.0367   Anisotropy =    26.5160

      2  C    Isotropic =   216.3775   Anisotropy =     8.9179

      3  C    Isotropic =   188.8132   Anisotropy =    41.8502

      4  C    Isotropic =   220.3578   Anisotropy =    13.6967

      5  C    Isotropic =   210.3012   Anisotropy =    16.3726

      6  C    Isotropic =   217.4138   Anisotropy =    14.1393

      7  C    Isotropic =   214.5988   Anisotropy =    23.5211

      8  O    Isotropic =   357.5976   Anisotropy =    99.4817

      9  C    Isotropic =   214.7316   Anisotropy =    13.1989

     10  C    Isotropic =   221.1021   Anisotropy =    26.4879

     11  C    Isotropic =   223.9749   Anisotropy =    20.1426

     12  H    Isotropic =    32.5550   Anisotropy =    14.3700

     13  H    Isotropic =    32.5865   Anisotropy =     9.5332

     14  H    Isotropic =    32.4964   Anisotropy =    13.6576

     15  H    Isotropic =    32.4827   Anisotropy =    14.1262

     16  H    Isotropic =    31.8562   Anisotropy =    10.1382

     17  H    Isotropic =    32.7546   Anisotropy =     8.1220

     18  H    Isotropic =    32.5018   Anisotropy =    13.6511

     19  H    Isotropic =    32.0079   Anisotropy =    11.9406

     20  H    Isotropic =    32.6065   Anisotropy =    13.8788

     21  H    Isotropic =    32.5434   Anisotropy =    12.8944

     22  H    Isotropic =    32.5656   Anisotropy =     7.5226

     23  H    Isotropic =    32.8296   Anisotropy =    13.2615

     24  H    Isotropic =    35.1189   Anisotropy =    19.6403

     25  H    Isotropic =    31.7708   Anisotropy =    12.0059

     26  H    Isotropic =    32.5888   Anisotropy =     9.6213

     27  H    Isotropic =    32.5087   Anisotropy =    13.0076

     28  H    Isotropic =    32.4146   Anisotropy =    14.7076

     29  H    Isotropic =    32.7827   Anisotropy =     9.1723

     30  H    Isotropic =    32.2568   Anisotropy =     9.5393

     31  H    Isotropic =    32.5439   Anisotropy =    14.8309

 The electronic state is 1-A.
 Alpha  occ. eigenvalues --  -20.23851 -11.08490 -11.04756 -11.04116 -11.04010
 Alpha  occ. eigenvalues --  -11.03659 -11.03606 -11.03554 -11.03259 -11.02526
 Alpha  occ. eigenvalues --  -11.02129  -1.27926  -1.08139  -1.03213  -0.96590
 Alpha  occ. eigenvalues --   -0.94622  -0.88306  -0.87839  -0.81045  -0.77652
 Alpha  occ. eigenvalues --   -0.72472  -0.67071  -0.64180  -0.60961  -0.59859
 Alpha  occ. eigenvalues --   -0.57711  -0.55943  -0.54169  -0.52775  -0.51398
 Alpha  occ. eigenvalues --   -0.50736  -0.49278  -0.49002  -0.47907  -0.47546
 Alpha  occ. eigenvalues --   -0.45933  -0.44052  -0.42614  -0.41722  -0.40907
 Alpha  occ. eigenvalues --   -0.39597  -0.38434  -0.35780  -0.32970
 Alpha virt. eigenvalues --    0.52661   0.55970   0.56595   0.60477   0.60854
 Alpha virt. eigenvalues --    0.61397   0.62283   0.64250   0.65338   0.67248
 Alpha virt. eigenvalues --    0.68342   0.69122   0.70192   0.71145   0.72065

 Mulliken atomic charges:
              1
     1  C   -0.170708
     2  C   -0.024239
     3  C    0.077965
     4  C   -0.102948
     5  C   -0.032537
     6  C   -0.101772
     7  C   -0.116100
     8  O   -0.313733
     9  C   -0.016537
    10  C   -0.173268
    11  C   -0.176102
    12  H    0.053324
    13  H    0.052908
    14  H    0.053398
    15  H    0.046548
    16  H    0.037275
    17  H    0.049029
    18  H    0.052903
    19  H    0.046408
    20  H    0.052567
    21  H    0.046843
    22  H    0.055669
    23  H    0.044153
    24  H    0.178431
    25  H    0.060589
    26  H    0.052082
    27  H    0.051408
    28  H    0.053889
    29  H    0.048084
    30  H    0.061782
    31  H    0.052687
 Sum of Mulliken atomic charges =   0.00000

 Dipole moment (field-independent basis, Debye):
    X=             -1.3200    Y=             -0.0270    Z=             -0.2995  Tot=              1.3538
 Quadrupole moment (field-independent basis, Debye-Ang):
   XX=            -68.8283   YY=            -66.0677   ZZ=            -67.4396
   XY=             -3.2517   XZ=              0.7069   YZ=             -0.4769

 Summary of Natural Population Analysis:

                                       Natural Population
                Natural  -----------------------------------------------
    Atom  No    Charge         Core      Valence    Rydberg      Total
 -----------------------------------------------------------------------
      C    1   -0.12573      1.99997     4.12575    0.00000     6.12573
      C    2    0.01516      1.99997     3.98488    0.00000     5.98484
      C    3    0.14565      1.99989     3.85446    0.00000     5.85435
      C    4   -0.06571      1.99996     4.06575    0.00000     6.06571
      C    5   -0.00950      1.99995     4.00956    0.00000     6.00950
      C    6   -0.06438      1.99996     4.06441    0.00000     6.06438
      C    7   -0.09317      1.99996     4.09321    0.00000     6.09317
      O    8   -0.33459      1.99999     6.33460    0.00000     8.33459
      C    9    0.02357      1.99996     3.97648    0.00000     5.97643
      C   10   -0.12883      1.99997     4.12886    0.00000     6.12883
      C   11   -0.13237      1.99997     4.13240    0.00000     6.13237
      H   12    0.03591      0.00000     0.96409    0.00000     0.96409
      H   13    0.03549      0.00000     0.96451    0.00000     0.96451
      H   14    0.03603      0.00000     0.96397    0.00000     0.96397
      H   15    0.02216      0.00000     0.97784    0.00000     0.97784
      H   16    0.00159      0.00000     0.99841    0.00000     0.99841
      H   17    0.02759      0.00000     0.97241    0.00000     0.97241
      H   18    0.03203      0.00000     0.96797    0.00000     0.96797
      H   19    0.02047      0.00000     0.97953    0.00000     0.97953
      H   20    0.03188      0.00000     0.96812    0.00000     0.96812
      H   21    0.02620      0.00000     0.97380    0.00000     0.97380
      H   22    0.03458      0.00000     0.96542    0.00000     0.96542
      H   23    0.02478      0.00000     0.97522    0.00000     0.97522
      H   24    0.19110      0.00000     0.80890    0.00000     0.80890
      H   25    0.03404      0.00000     0.96596    0.00000     0.96596
      H   26    0.03456      0.00000     0.96544    0.00000     0.96544
      H   27    0.03413      0.00000     0.96587    0.00000     0.96587
      H   28    0.03665      0.00000     0.96335    0.00000     0.96335
      H   29    0.03119      0.00000     0.96881    0.00000     0.96881
      H   30    0.04354      0.00000     0.95646    0.00000     0.95646
      H   31    0.03600      0.00000     0.96400    0.00000     0.96400
 =======================================================================
   * Total *    0.00000     21.99954    66.00046    0.00000    88.00000

 Normal termination of Gaussian 09 at Tue Aug  3 16:36:20 2021.
