 Gaussian 09, Revision C.01,
 Gaussian 09:  EM64L-G09RevC.01 23-Sep-2011

 ------------------------
 # rhf/STO-3G nmr pop=nbo
 ------------------------

 99/9=1/99;
 -------
 comment
 -------
 Charge =  0 Multiplicity = 1

                         Standard orientation:
 ---------------------------------------------------------------------
 Center     Atomic      Atomic             Coordinates (Angstroms)
 Number     Number       Type             X           Y           Z
 ---------------------------------------------------------------------
      1          6           0       -3.111021   -0.098475    1.080240
      2          6           0       -2.292771   -0.086959   -0.211909
      3          6           0       -0.007979    0.998125    0.124322
      4          6           0       -0.237308   -1.165339   -1.231663
      5          6           0        0.721459   -0.046602   -0.754662
      6          6           0       -1.435197   -1.357378   -0.306802
      7          6           0       -1.454885    1.193635   -0.332289
      8          8           0        0.634984    2.266478    0.011037
      9          6           0        2.024900   -0.640180   -0.132533
     10          6           0        1.797852   -1.481959    1.126387
     11          6           0        3.092042    0.420588    0.149949
     12          1           0       -2.463498   -0.056574    1.962605
     13          1           0       -3.789603    0.760286    1.117920
     14          1           0       -3.718829   -1.007078    1.146634
     15          1           0       -3.007296   -0.089889   -1.045919
     16          1           0       -0.007786    0.710735    1.181058
     17          1           0        0.293626   -2.115617   -1.359224
     18          1           0       -0.613172   -0.900059   -2.229157
     19          1           0        1.056509    0.472305   -1.665859
     20          1           0       -1.083976   -1.655555    0.687926
     21          1           0       -2.054748   -2.185039   -0.672983
     22          1           0       -1.917846    2.024573    0.215035
     23          1           0       -1.448158    1.521151   -1.381624
     24          1           0        1.254620    2.353087    0.753759
     25          1           0        2.456184   -1.310769   -0.889360
     26          1           0        1.359014   -0.894685    1.938143
     27          1           0        1.144626   -2.335562    0.925477
     28          1           0        2.748309   -1.887638    1.491227
     29          1           0        2.848745    1.018454    1.032789
     30          1           0        3.221591    1.090543   -0.705941
     31          1           0        4.059267   -0.057230    0.342956
 ---------------------------------------------------------------------

 SCF Done:  E(RHF) =  -459.608089432     A.U. after   11 cycles

      1  C    Isotropic =   220.8317   Anisotropy =    26.5899

      2  C    Isotropic =   216.4018   Anisotropy =     8.9084

      3  C    Isotropic =   189.7452   Anisotropy =    46.5761

      4  C    Isotropic =   216.5028   Anisotropy =    17.3898

      5  C    Isotropic =   208.9303   Anisotropy =     8.5494

      6  C    Isotropic =   217.2938   Anisotropy =    16.9525

      7  C    Isotropic =   216.2824   Anisotropy =    17.6944

      8  O    Isotropic =   361.1858   Anisotropy =    62.5837

      9  C    Isotropic =   211.6211   Anisotropy =    18.3548

     10  C    Isotropic =   224.4955   Anisotropy =    19.5022

     11  C    Isotropic =   220.7826   Anisotropy =    24.7502

     12  H    Isotropic =    32.7037   Anisotropy =     9.3899

     13  H    Isotropic =    32.4664   Anisotropy =    14.2564

     14  H    Isotropic =    32.4789   Anisotropy =    13.8641

     15  H    Isotropic =    32.3488   Anisotropy =    14.3495

     16  H    Isotropic =    32.2527   Anisotropy =     4.9135

     17  H    Isotropic =    32.5399   Anisotropy =    12.1452

     18  H    Isotropic =    32.2105   Anisotropy =    13.4882

     19  H    Isotropic =    31.9507   Anisotropy =    11.3609

     20  H    Isotropic =    33.0909   Anisotropy =     8.2808

     21  H    Isotropic =    32.4243   Anisotropy =    14.7544

     22  H    Isotropic =    32.1149   Anisotropy =    12.8341

     23  H    Isotropic =    31.9829   Anisotropy =    12.3223

     24  H    Isotropic =    34.4968   Anisotropy =    17.1458

     25  H    Isotropic =    32.4102   Anisotropy =    12.6113

     26  H    Isotropic =    32.9678   Anisotropy =     9.0448

     27  H    Isotropic =    32.6312   Anisotropy =    10.1767

     28  H    Isotropic =    32.6278   Anisotropy =    14.5505

     29  H    Isotropic =    33.2013   Anisotropy =     9.3472

     30  H    Isotropic =    32.3112   Anisotropy =    12.0705

     31  H    Isotropic =    32.4293   Anisotropy =    14.7286

 The electronic state is 1-A.
 Alpha  occ. eigenvalues --  -20.23476 -11.08440 -11.04789 -11.04457 -11.03867
 Alpha  occ. eigenvalues --  -11.03534 -11.03476 -11.03353 -11.03327 -11.03196
 Alpha  occ. eigenvalues --  -11.03091  -1.27640  -1.08115  -1.03763  -0.96826
 Alpha  occ. eigenvalues --   -0.94424  -0.89277  -0.87857  -0.79928  -0.78586
 Alpha  occ. eigenvalues --   -0.73073  -0.67984  -0.64167  -0.60789  -0.59474
 Alpha  occ. eigenvalues --   -0.56773  -0.56201  -0.54547  -0.54215  -0.51724
 Alpha  occ. eigenvalues --   -0.51261  -0.50337  -0.48384  -0.48158  -0.47893
 Alpha  occ. eigenvalues --   -0.45583  -0.43647  -0.42607  -0.42051  -0.40921
 Alpha  occ. eigenvalues --   -0.39901  -0.38333  -0.37077  -0.32429
 Alpha virt. eigenvalues --    0.52816   0.55497   0.56706   0.59798   0.60175
 Alpha virt. eigenvalues --    0.61473   0.61974   0.64545   0.65170   0.66426
 Alpha virt. eigenvalues --    0.67130   0.68978   0.70172   0.71252   0.71971

 Mulliken atomic charges:
              1
     1  C   -0.170741
     2  C   -0.025254
     3  C    0.075999
     4  C   -0.102548
     5  C   -0.040228
     6  C   -0.102249
     7  C   -0.107103
     8  O   -0.314569
     9  C   -0.020543
    10  C   -0.177143
    11  C   -0.174087
    12  H    0.050282
    13  H    0.053740
    14  H    0.053385
    15  H    0.048641
    16  H    0.040132
    17  H    0.050945
    18  H    0.048791
    19  H    0.054850
    20  H    0.048058
    21  H    0.050673
    22  H    0.057529
    23  H    0.054589
    24  H    0.179701
    25  H    0.048271
    26  H    0.049653
    27  H    0.055687
    28  H    0.054975
    29  H    0.043478
    30  H    0.060253
    31  H    0.054834
 Sum of Mulliken atomic charges =   0.00000

 Dipole moment (field-independent basis, Debye):
    X=              0.2433    Y=             -1.0341    Z=              0.8169  Tot=              1.3401
 Quadrupole moment (field-independent basis, Debye-Ang):
   XX=            -66.5364   YY=            -71.3389   ZZ=            -66.5266
   XY=              0.0708   XZ=              1.4835   YZ=              2.6154

 Summary of Natural Population Analysis:

                                       Natural Population
                Natural  -----------------------------------------------
    Atom  No    Charge         Core      Valence    Rydberg      Total
 -----------------------------------------------------------------------
      C    1   -0.12549      1.99998     4.12551    0.00000     6.12549
      C    2    0.01315      1.99997     3.98689    0.00000     5.98685
      C    3    0.14391      1.99989     3.85620    0.00000     5.85609
      C    4   -0.06466      1.99996     4.06470    0.00000     6.06466
      C    5   -0.01971      1.99995     4.01976    0.00000     6.01971
      C    6   -0.06499      1.99996     4.06502    0.00000     6.06499
      C    7   -0.08434      1.99996     4.08438    0.00000     6.08434
      O    8   -0.33625      1.99999     6.33626    0.00000     8.33625
      C    9    0.01997      1.99996     3.98007    0.00000     5.98003
      C   10   -0.13331      1.99997     4.13334    0.00000     6.13331
      C   11   -0.12988      1.99997     4.12991    0.00000     6.12988
      H   12    0.03312      0.00000     0.96688    0.00000     0.96688
      H   13    0.03629      0.00000     0.96371    0.00000     0.96371
      H   14    0.03601      0.00000     0.96399    0.00000     0.96399
      H   15    0.02440      0.00000     0.97560    0.00000     0.97560
      H   16    0.00573      0.00000     0.99427    0.00000     0.99427
      H   17    0.03002      0.00000     0.96998    0.00000     0.96998
      H   18    0.02782      0.00000     0.97218    0.00000     0.97218
      H   19    0.02911      0.00000     0.97089    0.00000     0.97089
      H   20    0.02716      0.00000     0.97284    0.00000     0.97284
      H   21    0.03028      0.00000     0.96972    0.00000     0.96972
      H   22    0.03668      0.00000     0.96332    0.00000     0.96332
      H   23    0.03382      0.00000     0.96618    0.00000     0.96618
      H   24    0.19203      0.00000     0.80797    0.00000     0.80797
      H   25    0.02311      0.00000     0.97689    0.00000     0.97689
      H   26    0.03273      0.00000     0.96727    0.00000     0.96727
      H   27    0.03819      0.00000     0.96181    0.00000     0.96181
      H   28    0.03804      0.00000     0.96196    0.00000     0.96196
      H   29    0.02706      0.00000     0.97294    0.00000     0.97294
      H   30    0.04231      0.00000     0.95769    0.00000     0.95769
      H   31    0.03769      0.00000     0.96231    0.00000     0.96231
 =======================================================================
   * Total *    0.00000     21.99955    66.00045    0.00000    88.00000

 Normal termination of Gaussian 09 at Tue Aug  3 16:36:54 2021.
