 Gaussian 09, Revision C.01,
 Gaussian 09:  EM64L-G09RevC.01 23-Sep-2011

 ------------------------
 # rhf/STO-3G nmr pop=nbo
 ------------------------

 99/9=1/99;
 -------
 comment
 -------
 Charge =  0 Multiplicity = 1

                         Standard orientation:
 ---------------------------------------------------------------------
 Center     Atomic      Atomic             Coordinates (Angstroms)
 Number     Number       Type             X           Y           Z
 ---------------------------------------------------------------------
      1          6           0        3.122564   -1.192796   -0.242337
      2          6           0        1.983652   -0.281352    0.215223
      3          6           0        0.159959    1.309517   -0.593680
      4          6           0       -0.244376   -0.211754    1.428749
      5          6           0       -0.894732    0.636407    0.316336
      6          6           0        0.930313   -1.080633    0.983571
      7          6           0        1.350694    0.432735   -0.984324
      8          8           0        0.667420    2.473011    0.074638
      9          6           0       -2.032908   -0.070399   -0.482908
     10          6           0       -3.289047   -0.243835    0.385415
     11          6           0       -1.682858   -1.416209   -1.112657
     12          1           0        3.892941   -0.617675   -0.766728
     13          1           0        3.595894   -1.682632    0.615150
     14          1           0        2.761487   -1.973045   -0.921020
     15          1           0        2.413572    0.469202    0.890742
     16          1           0       -0.315990    1.685719   -1.505725
     17          1           0       -0.988813   -0.838694    1.930295
     18          1           0        0.127989    0.474466    2.201726
     19          1           0       -1.396641    1.461468    0.845587
     20          1           0        0.576358   -1.915218    0.370697
     21          1           0        1.389276   -1.531970    1.872218
     22          1           0        1.041554   -0.303949   -1.732114
     23          1           0        2.115997    1.058290   -1.462025
     24          1           0        1.029701    2.200068    0.933701
     25          1           0       -2.321507    0.603090   -1.301432
     26          1           0       -3.126251   -0.952631    1.202991
     27          1           0       -3.601914    0.712090    0.818365
     28          1           0       -4.123837   -0.619062   -0.216999
     29          1           0       -1.498253   -2.183378   -0.355237
     30          1           0       -0.814077   -1.347938   -1.768308
     31          1           0       -2.516423   -1.772380   -1.729311
 ---------------------------------------------------------------------

 SCF Done:  E(RHF) =  -459.612662088     A.U. after   10 cycles

      1  C    Isotropic =   220.9533   Anisotropy =    28.6259

      2  C    Isotropic =   217.5850   Anisotropy =     8.6365

      3  C    Isotropic =   187.7045   Anisotropy =    36.4487

      4  C    Isotropic =   220.9720   Anisotropy =    13.8684

      5  C    Isotropic =   209.8302   Anisotropy =    19.7942

      6  C    Isotropic =   217.9519   Anisotropy =    15.8148

      7  C    Isotropic =   216.0757   Anisotropy =    15.7359

      8  O    Isotropic =   351.5772   Anisotropy =    37.9241

      9  C    Isotropic =   211.9341   Anisotropy =    19.2941

     10  C    Isotropic =   220.3022   Anisotropy =    28.9623

     11  C    Isotropic =   223.1887   Anisotropy =    18.4617

     12  H    Isotropic =    32.4385   Anisotropy =    14.1175

     13  H    Isotropic =    32.4941   Anisotropy =    13.8620

     14  H    Isotropic =    32.7354   Anisotropy =    11.1210

     15  H    Isotropic =    33.1316   Anisotropy =    11.3800

     16  H    Isotropic =    31.4738   Anisotropy =    10.8686

     17  H    Isotropic =    32.5289   Anisotropy =    12.4567

     18  H    Isotropic =    32.9542   Anisotropy =    13.3971

     19  H    Isotropic =    32.3023   Anisotropy =    11.7890

     20  H    Isotropic =    33.0021   Anisotropy =     9.3388

     21  H    Isotropic =    32.6728   Anisotropy =    14.1917

     22  H    Isotropic =    32.8009   Anisotropy =     9.8681

     23  H    Isotropic =    32.0769   Anisotropy =    14.0638

     24  H    Isotropic =    34.5354   Anisotropy =    12.3622

     25  H    Isotropic =    32.4760   Anisotropy =    11.9833

     26  H    Isotropic =    32.5293   Anisotropy =     9.8714

     27  H    Isotropic =    32.4833   Anisotropy =    13.2286

     28  H    Isotropic =    32.4258   Anisotropy =    14.5130

     29  H    Isotropic =    32.8614   Anisotropy =     8.5063

     30  H    Isotropic =    32.8240   Anisotropy =     9.6958

     31  H    Isotropic =    32.5683   Anisotropy =    14.8999

 The electronic state is 1-A.
 Alpha  occ. eigenvalues --  -20.23266 -11.08415 -11.04984 -11.04979 -11.04401
 Alpha  occ. eigenvalues --  -11.04192 -11.03861 -11.03654 -11.03412 -11.03361
 Alpha  occ. eigenvalues --  -11.03139  -1.27484  -1.08270  -1.03977  -0.97332
 Alpha  occ. eigenvalues --   -0.95105  -0.89535  -0.88220  -0.80509  -0.78349
 Alpha  occ. eigenvalues --   -0.73805  -0.69248  -0.62400  -0.61191  -0.59284
 Alpha  occ. eigenvalues --   -0.57725  -0.56406  -0.54833  -0.53099  -0.52381
 Alpha  occ. eigenvalues --   -0.51803  -0.50296  -0.49572  -0.48272  -0.47745
 Alpha  occ. eigenvalues --   -0.47209  -0.44368  -0.43142  -0.42360  -0.41285
 Alpha  occ. eigenvalues --   -0.39598  -0.38879  -0.36324  -0.32810
 Alpha virt. eigenvalues --    0.53057   0.55557   0.57112   0.58426   0.59318
 Alpha virt. eigenvalues --    0.61392   0.62110   0.63868   0.64365   0.66487
 Alpha virt. eigenvalues --    0.68272   0.68787   0.69919   0.71695   0.72464

 Mulliken atomic charges:
              1
     1  C   -0.171218
     2  C   -0.025998
     3  C    0.073635
     4  C   -0.106655
     5  C   -0.044825
     6  C   -0.103686
     7  C   -0.114609
     8  O   -0.313993
     9  C   -0.019848
    10  C   -0.172551
    11  C   -0.177362
    12  H    0.055204
    13  H    0.054251
    14  H    0.053644
    15  H    0.041740
    16  H    0.059470
    17  H    0.055259
    18  H    0.042919
    19  H    0.055315
    20  H    0.052034
    21  H    0.049926
    22  H    0.051316
    23  H    0.059274
    24  H    0.173799
    25  H    0.049041
    26  H    0.052062
    27  H    0.053531
    28  H    0.054020
    29  H    0.054624
    30  H    0.054258
    31  H    0.055424
 Sum of Mulliken atomic charges =   0.00000

 Dipole moment (field-independent basis, Debye):
    X=             -0.0536    Y=             -1.4363    Z=              0.5164  Tot=              1.5273
 Quadrupole moment (field-independent basis, Debye-Ang):
   XX=            -67.3487   YY=            -73.9235   ZZ=            -65.8691
   XY=             -0.3953   XZ=              1.3854   YZ=              1.3451

 Summary of Natural Population Analysis:

                                       Natural Population
                Natural  -----------------------------------------------
    Atom  No    Charge         Core      Valence    Rydberg      Total
 -----------------------------------------------------------------------
      C    1   -0.12614      1.99997     4.12616    0.00000     6.12614
      C    2    0.01290      1.99997     3.98714    0.00000     5.98710
      C    3    0.14138      1.99989     3.85873    0.00000     5.85862
      C    4   -0.06846      1.99995     4.06850    0.00000     6.06846
      C    5   -0.02387      1.99995     4.02393    0.00000     6.02387
      C    6   -0.06741      1.99996     4.06745    0.00000     6.06741
      C    7   -0.09206      1.99996     4.09210    0.00000     6.09206
      O    8   -0.33528      1.99999     6.33529    0.00000     8.33528
      C    9    0.02165      1.99996     3.97839    0.00000     5.97835
      C   10   -0.12787      1.99997     4.12790    0.00000     6.12787
      C   11   -0.13411      1.99997     4.13414    0.00000     6.13411
      H   12    0.03773      0.00000     0.96227    0.00000     0.96227
      H   13    0.03688      0.00000     0.96312    0.00000     0.96312
      H   14    0.03627      0.00000     0.96373    0.00000     0.96373
      H   15    0.01828      0.00000     0.98172    0.00000     0.98172
      H   16    0.02377      0.00000     0.97623    0.00000     0.97623
      H   17    0.03418      0.00000     0.96582    0.00000     0.96582
      H   18    0.02279      0.00000     0.97721    0.00000     0.97721
      H   19    0.02995      0.00000     0.97005    0.00000     0.97005
      H   20    0.03079      0.00000     0.96921    0.00000     0.96921
      H   21    0.02972      0.00000     0.97028    0.00000     0.97028
      H   22    0.03107      0.00000     0.96893    0.00000     0.96893
      H   23    0.03869      0.00000     0.96131    0.00000     0.96131
      H   24    0.18571      0.00000     0.81429    0.00000     0.81429
      H   25    0.02358      0.00000     0.97642    0.00000     0.97642
      H   26    0.03441      0.00000     0.96559    0.00000     0.96559
      H   27    0.03589      0.00000     0.96411    0.00000     0.96411
      H   28    0.03661      0.00000     0.96339    0.00000     0.96339
      H   29    0.03757      0.00000     0.96243    0.00000     0.96243
      H   30    0.03666      0.00000     0.96334    0.00000     0.96334
      H   31    0.03873      0.00000     0.96127    0.00000     0.96127
 =======================================================================
   * Total *    0.00000     21.99954    66.00046    0.00000    88.00000

 Normal termination of Gaussian 09 at Tue Aug  3 16:36:54 2021.
