 Gaussian 09, Revision C.01,
 Gaussian 09:  EM64L-G09RevC.01 23-Sep-2011

 ------------------------
 # rhf/STO-3G nmr pop=nbo
 ------------------------

 99/9=1/99;
 -------
 comment
 -------
 Charge =  0 Multiplicity = 1

                         Standard orientation:
 ---------------------------------------------------------------------
 Center     Atomic      Atomic             Coordinates (Angstroms)
 Number     Number       Type             X           Y           Z
 ---------------------------------------------------------------------
      1          6           0        3.206953   -0.796771   -0.607560
      2          6           0        2.030951   -0.040956    0.011289
      3          6           0       -0.183366    1.126216   -0.513151
      4          6           0        0.110578   -0.206270    1.654682
      5          6           0       -0.893755    0.385525    0.640780
      6          6           0        1.318799   -0.910932    1.048146
      7          6           0        1.052745    0.417754   -1.076675
      8          8           0        0.219104    2.422160   -0.049577
      9          6           0       -1.990939   -0.634785    0.206237
     10          6           0       -1.585837   -1.651882   -0.858453
     11          6           0       -3.252598    0.100707   -0.273574
     12          1           0        2.871097   -1.698862   -1.130253
     13          1           0        3.737872   -0.165665   -1.328015
     14          1           0        3.922846   -1.099413    0.163916
     15          1           0        2.438138    0.843050    0.518528
     16          1           0       -0.882249    1.318438   -1.332661
     17          1           0       -0.399659   -0.886634    2.346823
     18          1           0        0.486626    0.616945    2.277669
     19          1           0       -1.433369    1.150310    1.220956
     20          1           0        1.016675   -1.863742    0.603540
     21          1           0        2.018630   -1.165038    1.854301
     22          1           0        0.748501   -0.444822   -1.678092
     23          1           0        1.579559    1.101668   -1.754738
     24          1           0        0.787861    2.307240    0.729483
     25          1           0       -2.289053   -1.200911    1.098980
     26          1           0       -1.379661   -1.173168   -1.820312
     27          1           0       -0.713489   -2.233753   -0.559356
     28          1           0       -2.399528   -2.367145   -1.026402
     29          1           0       -3.070392    0.665488   -1.193045
     30          1           0       -3.613551    0.798243    0.489586
     31          1           0       -4.060872   -0.611131   -0.474616
 ---------------------------------------------------------------------

 SCF Done:  E(RHF) =  -459.612328160     A.U. after   10 cycles

      1  C    Isotropic =   220.9598   Anisotropy =    28.5993

      2  C    Isotropic =   217.6113   Anisotropy =     8.4413

      3  C    Isotropic =   191.3866   Anisotropy =    40.0957

      4  C    Isotropic =   216.6724   Anisotropy =    16.4492

      5  C    Isotropic =   210.1915   Anisotropy =    15.0607

      6  C    Isotropic =   218.1115   Anisotropy =    15.3626

      7  C    Isotropic =   216.1349   Anisotropy =    15.9876

      8  O    Isotropic =   353.3693   Anisotropy =    39.0112

      9  C    Isotropic =   211.1974   Anisotropy =    20.4578

     10  C    Isotropic =   222.8504   Anisotropy =    18.8994

     11  C    Isotropic =   220.0750   Anisotropy =    29.1291

     12  H    Isotropic =    32.7347   Anisotropy =    11.1131

     13  H    Isotropic =    32.4442   Anisotropy =    14.0063

     14  H    Isotropic =    32.4873   Anisotropy =    13.9730

     15  H    Isotropic =    33.1289   Anisotropy =    11.4069

     16  H    Isotropic =    31.4789   Anisotropy =    10.2969

     17  H    Isotropic =    32.5264   Anisotropy =    13.1942

     18  H    Isotropic =    32.7465   Anisotropy =    13.1046

     19  H    Isotropic =    32.2948   Anisotropy =    11.7995

     20  H    Isotropic =    32.9559   Anisotropy =     9.6940

     21  H    Isotropic =    32.6286   Anisotropy =    14.4591

     22  H    Isotropic =    32.8246   Anisotropy =     9.4128

     23  H    Isotropic =    32.1290   Anisotropy =    13.8300

     24  H    Isotropic =    34.5931   Anisotropy =    12.7979

     25  H    Isotropic =    32.5715   Anisotropy =    11.8694

     26  H    Isotropic =    32.8945   Anisotropy =     8.4889

     27  H    Isotropic =    32.7768   Anisotropy =     9.6735

     28  H    Isotropic =    32.5539   Anisotropy =    14.8646

     29  H    Isotropic =    32.3940   Anisotropy =     9.8449

     30  H    Isotropic =    32.4061   Anisotropy =    13.1664

     31  H    Isotropic =    32.4396   Anisotropy =    14.5373

 The electronic state is 1-A.
 Alpha  occ. eigenvalues --  -20.23352 -11.08534 -11.04994 -11.04966 -11.04380
 Alpha  occ. eigenvalues --  -11.04081 -11.03927 -11.03590 -11.03417 -11.03364
 Alpha  occ. eigenvalues --  -11.02994  -1.27541  -1.08268  -1.03956  -0.97568
 Alpha  occ. eigenvalues --   -0.94847  -0.89510  -0.88128  -0.79985  -0.78790
 Alpha  occ. eigenvalues --   -0.74302  -0.69039  -0.62247  -0.60413  -0.59485
 Alpha  occ. eigenvalues --   -0.58358  -0.56360  -0.54155  -0.53718  -0.52304
 Alpha  occ. eigenvalues --   -0.51712  -0.50453  -0.49512  -0.48318  -0.47954
 Alpha  occ. eigenvalues --   -0.46943  -0.44317  -0.43060  -0.42682  -0.41239
 Alpha  occ. eigenvalues --   -0.39539  -0.38605  -0.36202  -0.33009
 Alpha virt. eigenvalues --    0.53066   0.55696   0.56936   0.58378   0.59708
 Alpha virt. eigenvalues --    0.61275   0.62242   0.63387   0.64487   0.65999
 Alpha virt. eigenvalues --    0.67985   0.69306   0.70094   0.71830   0.72680

 Mulliken atomic charges:
              1
     1  C   -0.171204
     2  C   -0.026010
     3  C    0.072655
     4  C   -0.104813
     5  C   -0.044968
     6  C   -0.103418
     7  C   -0.115081
     8  O   -0.313460
     9  C   -0.019826
    10  C   -0.177612
    11  C   -0.172645
    12  H    0.053617
    13  H    0.055236
    14  H    0.054269
    15  H    0.041778
    16  H    0.060728
    17  H    0.053599
    18  H    0.041547
    19  H    0.055232
    20  H    0.049559
    21  H    0.050421
    22  H    0.053833
    23  H    0.058638
    24  H    0.174454
    25  H    0.048472
    26  H    0.054283
    27  H    0.054672
    28  H    0.055565
    29  H    0.053483
    30  H    0.053780
    31  H    0.053213
 Sum of Mulliken atomic charges =   0.00000

 Dipole moment (field-independent basis, Debye):
    X=              0.3298    Y=             -1.3865    Z=              0.6563  Tot=              1.5690
 Quadrupole moment (field-independent basis, Debye-Ang):
   XX=            -67.0965   YY=            -73.0438   ZZ=            -66.4034
   XY=              1.4797   XZ=              0.8457   YZ=              1.7475

 Summary of Natural Population Analysis:

                                       Natural Population
                Natural  -----------------------------------------------
    Atom  No    Charge         Core      Valence    Rydberg      Total
 -----------------------------------------------------------------------
      C    1   -0.12614      1.99997     4.12617    0.00000     6.12614
      C    2    0.01297      1.99997     3.98706    0.00000     5.98703
      C    3    0.14062      1.99989     3.85949    0.00000     5.85938
      C    4   -0.06670      1.99996     4.06674    0.00000     6.06670
      C    5   -0.02431      1.99995     4.02436    0.00000     6.02431
      C    6   -0.06717      1.99996     4.06721    0.00000     6.06717
      C    7   -0.09249      1.99996     4.09253    0.00000     6.09249
      O    8   -0.33460      1.99999     6.33461    0.00000     8.33460
      C    9    0.02184      1.99996     3.97820    0.00000     5.97816
      C   10   -0.13424      1.99997     4.13427    0.00000     6.13424
      C   11   -0.12810      1.99997     4.12813    0.00000     6.12810
      H   12    0.03625      0.00000     0.96375    0.00000     0.96375
      H   13    0.03775      0.00000     0.96225    0.00000     0.96225
      H   14    0.03689      0.00000     0.96311    0.00000     0.96311
      H   15    0.01830      0.00000     0.98170    0.00000     0.98170
      H   16    0.02493      0.00000     0.97507    0.00000     0.97507
      H   17    0.03269      0.00000     0.96731    0.00000     0.96731
      H   18    0.02129      0.00000     0.97871    0.00000     0.97871
      H   19    0.02992      0.00000     0.97008    0.00000     0.97008
      H   20    0.02869      0.00000     0.97131    0.00000     0.97131
      H   21    0.03027      0.00000     0.96973    0.00000     0.96973
      H   22    0.03322      0.00000     0.96678    0.00000     0.96678
      H   23    0.03800      0.00000     0.96200    0.00000     0.96200
      H   24    0.18632      0.00000     0.81368    0.00000     0.81368
      H   25    0.02307      0.00000     0.97693    0.00000     0.97693
      H   26    0.03726      0.00000     0.96274    0.00000     0.96274
      H   27    0.03699      0.00000     0.96301    0.00000     0.96301
      H   28    0.03886      0.00000     0.96114    0.00000     0.96114
      H   29    0.03571      0.00000     0.96429    0.00000     0.96429
      H   30    0.03611      0.00000     0.96389    0.00000     0.96389
      H   31    0.03581      0.00000     0.96419    0.00000     0.96419
 =======================================================================
   * Total *    0.00000     21.99954    66.00046    0.00000    88.00000

 Normal termination of Gaussian 09 at Tue Aug  3 16:36:13 2021.
