 Gaussian 09, Revision C.01,
 Gaussian 09:  EM64L-G09RevC.01 23-Sep-2011

 ------------------------
 # rhf/STO-3G nmr pop=nbo
 ------------------------

 99/9=1/99;
 -------
 comment
 -------
 Charge =  0 Multiplicity = 1

                         Standard orientation:
 ---------------------------------------------------------------------
 Center     Atomic      Atomic             Coordinates (Angstroms)
 Number     Number       Type             X           Y           Z
 ---------------------------------------------------------------------
      1          6           0       -3.256244   -0.584610    0.736519
      2          6           0       -2.218300   -0.424911   -0.375434
      3          6           0       -0.278200    1.105486    0.229973
      4          6           0        0.148999   -1.106746   -0.989056
      5          6           0        0.756427    0.235826   -0.523762
      6          6           0       -1.115104   -1.484938   -0.222414
      7          6           0       -1.659559    1.006537   -0.415105
      8          8           0        0.143851    2.467984    0.231300
      9          6           0        2.084531    0.097121    0.279644
     10          6           0        3.230029   -0.399703   -0.611521
     11          6           0        1.973919   -0.796342    1.518655
     12          1           0       -4.091787    0.108117    0.590312
     13          1           0       -3.663332   -1.601259    0.744876
     14          1           0       -2.819025   -0.384600    1.720649
     15          1           0       -2.735875   -0.601598   -1.327820
     16          1           0       -0.358669    0.804197    1.278972
     17          1           0        0.871904   -1.925776   -0.928154
     18          1           0       -0.109857   -1.019617   -2.052949
     19          1           0        1.028161    0.785643   -1.437666
     20          1           0       -0.864269   -1.629118    0.835969
     21          1           0       -1.489153   -2.450813   -0.583268
     22          1           0       -2.349545    1.721218    0.050505
     23          1           0       -1.582201    1.332689   -1.461667
     24          1           0        0.180817    2.770961   -0.691929
     25          1           0        2.372994    1.098736    0.625405
     26          1           0        3.067757   -1.424869   -0.957538
     27          1           0        3.346680    0.242558   -1.490731
     28          1           0        4.178084   -0.381922   -0.062724
     29          1           0        1.205734   -0.437609    2.208953
     30          1           0        2.922237   -0.804709    2.067680
     31          1           0        1.739561   -1.832418    1.255716
 ---------------------------------------------------------------------

 SCF Done:  E(RHF) =  -459.612928767     A.U. after   10 cycles

      1  C    Isotropic =   220.6712   Anisotropy =    27.1327

      2  C    Isotropic =   216.2593   Anisotropy =     9.8774

      3  C    Isotropic =   190.4912   Anisotropy =    42.7634

      4  C    Isotropic =   219.8142   Anisotropy =    14.5566

      5  C    Isotropic =   207.5564   Anisotropy =    16.2183

      6  C    Isotropic =   217.2766   Anisotropy =    17.0605

      7  C    Isotropic =   214.9998   Anisotropy =    19.7141

      8  O    Isotropic =   348.7617   Anisotropy =    86.5481

      9  C    Isotropic =   213.9486   Anisotropy =    15.1764

     10  C    Isotropic =   221.2603   Anisotropy =    27.1771

     11  C    Isotropic =   224.4317   Anisotropy =    20.1377

     12  H    Isotropic =    32.4478   Anisotropy =    14.2188

     13  H    Isotropic =    32.4640   Anisotropy =    13.8917

     14  H    Isotropic =    32.5627   Anisotropy =     9.9178

     15  H    Isotropic =    32.4432   Anisotropy =    13.7561

     16  H    Isotropic =    31.6342   Anisotropy =     6.2367

     17  H    Isotropic =    32.5374   Anisotropy =    11.6709

     18  H    Isotropic =    32.5766   Anisotropy =    13.1156

     19  H    Isotropic =    32.9695   Anisotropy =    10.1240

     20  H    Isotropic =    33.0030   Anisotropy =     8.4834

     21  H    Isotropic =    32.4855   Anisotropy =    14.4519

     22  H    Isotropic =    32.1974   Anisotropy =    12.8715

     23  H    Isotropic =    32.8207   Anisotropy =    11.4917

     24  H    Isotropic =    35.4246   Anisotropy =    16.0732

     25  H    Isotropic =    31.9959   Anisotropy =    11.3587

     26  H    Isotropic =    32.5464   Anisotropy =    10.0279

     27  H    Isotropic =    32.6026   Anisotropy =    12.9823

     28  H    Isotropic =    32.4110   Anisotropy =    14.6593

     29  H    Isotropic =    32.5213   Anisotropy =    10.3587

     30  H    Isotropic =    32.5238   Anisotropy =    14.9698

     31  H    Isotropic =    32.7940   Anisotropy =     9.1113

 The electronic state is 1-A.
 Alpha  occ. eigenvalues --  -20.23832 -11.08495 -11.04771 -11.04443 -11.04234
 Alpha  occ. eigenvalues --  -11.03805 -11.03777 -11.03616 -11.03214 -11.02942
 Alpha  occ. eigenvalues --  -11.02910  -1.27856  -1.08333  -1.03679  -0.96755
 Alpha  occ. eigenvalues --   -0.94696  -0.88955  -0.87994  -0.80664  -0.78769
 Alpha  occ. eigenvalues --   -0.72636  -0.69262  -0.63102  -0.61590  -0.58416
 Alpha  occ. eigenvalues --   -0.57718  -0.54788  -0.53683  -0.53240  -0.52618
 Alpha  occ. eigenvalues --   -0.52393  -0.50069  -0.49670  -0.47952  -0.47596
 Alpha  occ. eigenvalues --   -0.45902  -0.44298  -0.42862  -0.42189  -0.41554
 Alpha  occ. eigenvalues --   -0.39727  -0.39229  -0.36217  -0.32537
 Alpha virt. eigenvalues --    0.53524   0.55010   0.57728   0.59878   0.60254
 Alpha virt. eigenvalues --    0.61194   0.62021   0.64326   0.64717   0.66066
 Alpha virt. eigenvalues --    0.67611   0.68629   0.70808   0.71440   0.71643

 Mulliken atomic charges:
              1
     1  C   -0.170694
     2  C   -0.024604
     3  C    0.075869
     4  C   -0.104699
     5  C   -0.039608
     6  C   -0.100986
     7  C   -0.115531
     8  O   -0.311357
     9  C   -0.020672
    10  C   -0.173311
    11  C   -0.175999
    12  H    0.053775
    13  H    0.053707
    14  H    0.052721
    15  H    0.047783
    16  H    0.059268
    17  H    0.054147
    18  H    0.047282
    19  H    0.039991
    20  H    0.049339
    21  H    0.051354
    22  H    0.058757
    23  H    0.041920
    24  H    0.175457
    25  H    0.056954
    26  H    0.052090
    27  H    0.051583
    28  H    0.054307
    29  H    0.053606
    30  H    0.055154
    31  H    0.052397
 Sum of Mulliken atomic charges =   0.00000

 Dipole moment (field-independent basis, Debye):
    X=             -0.3094    Y=             -0.8308    Z=             -1.1911  Tot=              1.4848
 Quadrupole moment (field-independent basis, Debye-Ang):
   XX=            -67.9039   YY=            -70.3858   ZZ=            -66.8783
   XY=             -0.4193   XZ=              0.1858   YZ=             -3.5401

 Summary of Natural Population Analysis:

                                       Natural Population
                Natural  -----------------------------------------------
    Atom  No    Charge         Core      Valence    Rydberg      Total
 -----------------------------------------------------------------------
      C    1   -0.12574      1.99998     4.12576    0.00000     6.12574
      C    2    0.01452      1.99997     3.98552    0.00000     5.98548
      C    3    0.14189      1.99989     3.85822    0.00000     5.85811
      C    4   -0.06736      1.99996     4.06740    0.00000     6.06736
      C    5   -0.01816      1.99995     4.01821    0.00000     6.01816
      C    6   -0.06333      1.99996     4.06336    0.00000     6.06333
      C    7   -0.09252      1.99996     4.09255    0.00000     6.09252
      O    8   -0.33179      1.99999     6.33180    0.00000     8.33179
      C    9    0.01934      1.99996     3.98070    0.00000     5.98066
      C   10   -0.12876      1.99997     4.12879    0.00000     6.12876
      C   11   -0.13199      1.99997     4.13202    0.00000     6.13199
      H   12    0.03634      0.00000     0.96366    0.00000     0.96366
      H   13    0.03628      0.00000     0.96372    0.00000     0.96372
      H   14    0.03533      0.00000     0.96467    0.00000     0.96467
      H   15    0.02341      0.00000     0.97659    0.00000     0.97659
      H   16    0.02387      0.00000     0.97613    0.00000     0.97613
      H   17    0.03304      0.00000     0.96696    0.00000     0.96696
      H   18    0.02672      0.00000     0.97328    0.00000     0.97328
      H   19    0.01565      0.00000     0.98435    0.00000     0.98435
      H   20    0.02829      0.00000     0.97171    0.00000     0.97171
      H   21    0.03074      0.00000     0.96926    0.00000     0.96926
      H   22    0.03792      0.00000     0.96208    0.00000     0.96208
      H   23    0.02239      0.00000     0.97761    0.00000     0.97761
      H   24    0.18768      0.00000     0.81232    0.00000     0.81232
      H   25    0.03076      0.00000     0.96924    0.00000     0.96924
      H   26    0.03456      0.00000     0.96544    0.00000     0.96544
      H   27    0.03432      0.00000     0.96568    0.00000     0.96568
      H   28    0.03702      0.00000     0.96298    0.00000     0.96298
      H   29    0.03625      0.00000     0.96375    0.00000     0.96375
      H   30    0.03819      0.00000     0.96181    0.00000     0.96181
      H   31    0.03514      0.00000     0.96486    0.00000     0.96486
 =======================================================================
   * Total *    0.00000     21.99955    66.00045    0.00000    88.00000

 Normal termination of Gaussian 09 at Tue Aug  3 16:37:05 2021.
