 Gaussian 09, Revision C.01,
 Gaussian 09:  EM64L-G09RevC.01 23-Sep-2011

 ------------------------
 # rhf/STO-3G nmr pop=nbo
 ------------------------

 99/9=1/99;
 -------
 comment
 -------
 Charge =  0 Multiplicity = 1

                         Standard orientation:
 ---------------------------------------------------------------------
 Center     Atomic      Atomic             Coordinates (Angstroms)
 Number     Number       Type             X           Y           Z
 ---------------------------------------------------------------------
      1          6           0        3.198284   -0.787320   -0.628349
      2          6           0        2.023008   -0.056126    0.019767
      3          6           0       -0.173736    1.151066   -0.441386
      4          6           0        0.103591   -0.281784    1.656339
      5          6           0       -0.896203    0.355122    0.665695
      6          6           0        1.310288   -0.965329    1.022610
      7          6           0        1.043026    0.444606   -1.048019
      8          8           0        0.277377    2.380399    0.144315
      9          6           0       -1.995390   -0.638111    0.179215
     10          6           0       -1.591795   -1.611984   -0.925181
     11          6           0       -3.248948    0.125793   -0.276942
     12          1           0        2.861770   -1.667813   -1.186249
     13          1           0        3.729499   -0.128610   -1.323416
     14          1           0        3.914097   -1.120563    0.130469
     15          1           0        2.427393    0.809398    0.560980
     16          1           0       -0.872690    1.428562   -1.236447
     17          1           0       -0.410450   -0.987056    2.320039
     18          1           0        0.482741    0.515975    2.310208
     19          1           0       -1.436950    1.092415    1.279862
     20          1           0        1.005678   -1.899352    0.541238
     21          1           0        2.010040   -1.251839    1.817857
     22          1           0        0.724112   -0.392640   -1.675944
     23          1           0        1.573570    1.143086   -1.708043
     24          1           0        0.683015    2.910612   -0.562729
     25          1           0       -2.302759   -1.239869    1.045160
     26          1           0       -1.385134   -1.094823   -1.866828
     27          1           0       -0.721068   -2.207748   -0.649620
     28          1           0       -2.407163   -2.317863   -1.122365
     29          1           0       -3.610624    0.792802    0.512702
     30          1           0       -4.060537   -0.571206   -0.513507
     31          1           0       -3.056306    0.727740   -1.170379
 ---------------------------------------------------------------------

 SCF Done:  E(RHF) =  -459.614072882     A.U. after   10 cycles

      1  C    Isotropic =   220.9117   Anisotropy =    28.4072

      2  C    Isotropic =   216.5972   Anisotropy =     6.6766

      3  C    Isotropic =   190.2376   Anisotropy =    40.8068

      4  C    Isotropic =   215.5782   Anisotropy =    16.5763

      5  C    Isotropic =   211.3412   Anisotropy =    14.8591

      6  C    Isotropic =   217.5217   Anisotropy =    15.7170

      7  C    Isotropic =   214.9719   Anisotropy =    17.7389

      8  O    Isotropic =   349.5070   Anisotropy =    97.4974

      9  C    Isotropic =   211.3199   Anisotropy =    20.1466

     10  C    Isotropic =   222.7775   Anisotropy =    18.6016

     11  C    Isotropic =   220.0446   Anisotropy =    29.0192

     12  H    Isotropic =    32.7387   Anisotropy =    10.9941

     13  H    Isotropic =    32.5214   Anisotropy =    13.7219

     14  H    Isotropic =    32.4136   Anisotropy =    14.1361

     15  H    Isotropic =    32.4006   Anisotropy =    11.3300

     16  H    Isotropic =    32.0124   Anisotropy =     9.5458

     17  H    Isotropic =    32.4362   Anisotropy =    13.4414

     18  H    Isotropic =    31.9350   Anisotropy =    13.3771

     19  H    Isotropic =    31.9266   Anisotropy =    11.9628

     20  H    Isotropic =    32.9029   Anisotropy =     9.6086

     21  H    Isotropic =    32.4347   Anisotropy =    14.6965

     22  H    Isotropic =    32.7949   Anisotropy =     8.9539

     23  H    Isotropic =    32.9219   Anisotropy =    12.9394

     24  H    Isotropic =    35.0853   Anisotropy =    19.2428

     25  H    Isotropic =    32.4744   Anisotropy =    12.1207

     26  H    Isotropic =    32.9742   Anisotropy =     8.4115

     27  H    Isotropic =    32.7061   Anisotropy =     9.6885

     28  H    Isotropic =    32.5595   Anisotropy =    14.8171

     29  H    Isotropic =    32.3926   Anisotropy =    13.1823

     30  H    Isotropic =    32.4554   Anisotropy =    14.4610

     31  H    Isotropic =    32.5126   Anisotropy =     9.6600

 The electronic state is 1-A.
 Alpha  occ. eigenvalues --  -20.23369 -11.08512 -11.04778 -11.04317 -11.04135
 Alpha  occ. eigenvalues --  -11.03675 -11.03210 -11.03148 -11.03031 -11.03020
 Alpha  occ. eigenvalues --  -11.02902  -1.27502  -1.07751  -1.03590  -0.96918
 Alpha  occ. eigenvalues --   -0.94595  -0.89323  -0.87806  -0.79427  -0.78186
 Alpha  occ. eigenvalues --   -0.73934  -0.68125  -0.62140  -0.60430  -0.58452
 Alpha  occ. eigenvalues --   -0.58154  -0.56765  -0.54079  -0.53410  -0.52917
 Alpha  occ. eigenvalues --   -0.51657  -0.49797  -0.49285  -0.47868  -0.47050
 Alpha  occ. eigenvalues --   -0.46402  -0.42932  -0.42736  -0.42109  -0.40403
 Alpha  occ. eigenvalues --   -0.38719  -0.38509  -0.36658  -0.33254
 Alpha virt. eigenvalues --    0.52586   0.55966   0.58588   0.58864   0.61063
 Alpha virt. eigenvalues --    0.61398   0.62439   0.63901   0.64811   0.65709
 Alpha virt. eigenvalues --    0.69665   0.70240   0.70591   0.71555   0.72170

 Mulliken atomic charges:
              1
     1  C   -0.172047
     2  C   -0.022669
     3  C    0.074211
     4  C   -0.100244
     5  C   -0.035507
     6  C   -0.101242
     7  C   -0.113947
     8  O   -0.314149
     9  C   -0.020079
    10  C   -0.177402
    11  C   -0.172473
    12  H    0.051907
    13  H    0.052114
    14  H    0.054343
    15  H    0.053454
    16  H    0.041796
    17  H    0.048916
    18  H    0.054590
    19  H    0.059834
    20  H    0.045509
    21  H    0.049533
    22  H    0.054457
    23  H    0.044043
    24  H    0.173586
    25  H    0.049887
    26  H    0.052784
    27  H    0.055633
    28  H    0.054926
    29  H    0.053957
    30  H    0.052805
    31  H    0.051475
 Sum of Mulliken atomic charges =   0.00000

 Dipole moment (field-independent basis, Debye):
    X=              0.0949    Y=             -0.4257    Z=             -1.1376  Tot=              1.2184
 Quadrupole moment (field-independent basis, Debye-Ang):
   XX=            -67.5793   YY=            -68.2665   ZZ=            -67.0003
   XY=              1.5564   XZ=             -0.5552   YZ=             -3.5837

 Summary of Natural Population Analysis:

                                       Natural Population
                Natural  -----------------------------------------------
    Atom  No    Charge         Core      Valence    Rydberg      Total
 -----------------------------------------------------------------------
      C    1   -0.12692      1.99997     4.12695    0.00000     6.12692
      C    2    0.01494      1.99997     3.98509    0.00000     5.98506
      C    3    0.14374      1.99988     3.85638    0.00000     5.85626
      C    4   -0.06333      1.99996     4.06337    0.00000     6.06333
      C    5   -0.01446      1.99995     4.01451    0.00000     6.01446
      C    6   -0.06458      1.99996     4.06462    0.00000     6.06458
      C    7   -0.09019      1.99996     4.09023    0.00000     6.09019
      O    8   -0.33566      1.99999     6.33567    0.00000     8.33566
      C    9    0.02120      1.99996     3.97884    0.00000     5.97880
      C   10   -0.13397      1.99997     4.13401    0.00000     6.13397
      C   11   -0.12780      1.99997     4.12783    0.00000     6.12780
      H   12    0.03469      0.00000     0.96531    0.00000     0.96531
      H   13    0.03495      0.00000     0.96505    0.00000     0.96505
      H   14    0.03706      0.00000     0.96294    0.00000     0.96294
      H   15    0.02877      0.00000     0.97123    0.00000     0.97123
      H   16    0.00583      0.00000     0.99417    0.00000     0.99417
      H   17    0.02810      0.00000     0.97190    0.00000     0.97190
      H   18    0.03301      0.00000     0.96699    0.00000     0.96699
      H   19    0.03406      0.00000     0.96594    0.00000     0.96594
      H   20    0.02476      0.00000     0.97524    0.00000     0.97524
      H   21    0.02943      0.00000     0.97057    0.00000     0.97057
      H   22    0.03364      0.00000     0.96636    0.00000     0.96636
      H   23    0.02474      0.00000     0.97526    0.00000     0.97526
      H   24    0.18586      0.00000     0.81414    0.00000     0.81414
      H   25    0.02451      0.00000     0.97549    0.00000     0.97549
      H   26    0.03592      0.00000     0.96408    0.00000     0.96408
      H   27    0.03788      0.00000     0.96212    0.00000     0.96212
      H   28    0.03826      0.00000     0.96174    0.00000     0.96174
      H   29    0.03626      0.00000     0.96374    0.00000     0.96374
      H   30    0.03542      0.00000     0.96458    0.00000     0.96458
      H   31    0.03388      0.00000     0.96612    0.00000     0.96612
 =======================================================================
   * Total *    0.00000     21.99954    66.00046    0.00000    88.00000

 Normal termination of Gaussian 09 at Tue Aug  3 16:35:48 2021.
