 Gaussian 09, Revision C.01,
 Gaussian 09:  EM64L-G09RevC.01 23-Sep-2011

 ------------------------
 # rhf/STO-3G nmr pop=nbo
 ------------------------

 99/9=1/99;
 -------
 comment
 -------
 Charge =  0 Multiplicity = 1

                         Standard orientation:
 ---------------------------------------------------------------------
 Center     Atomic      Atomic             Coordinates (Angstroms)
 Number     Number       Type             X           Y           Z
 ---------------------------------------------------------------------
      1          6           0       -3.119917   -0.105955    1.060599
      2          6           0       -2.282404   -0.104869   -0.219269
      3          6           0       -0.001011    0.984228    0.117885
      4          6           0       -0.220111   -1.196560   -1.212076
      5          6           0        0.729437   -0.063574   -0.755537
      6          6           0       -1.420253   -1.374555   -0.287482
      7          6           0       -1.447628    1.178563   -0.339611
      8          8           0        0.674068    2.236547    0.013751
      9          6           0        2.043612   -0.627118   -0.128202
     10          6           0        1.830355   -1.466725    1.134892
     11          6           0        3.079423    0.465128    0.155243
     12          1           0       -2.485570   -0.052166    1.951864
     13          1           0       -3.802212    0.750493    1.079068
     14          1           0       -3.725249   -1.016155    1.127689
     15          1           0       -2.984286   -0.118945   -1.063840
     16          1           0        0.008981    0.693483    1.173170
     17          1           0        0.316680   -2.146137   -1.318065
     18          1           0       -0.594176   -0.954118   -2.216016
     19          1           0        1.054188    0.447906   -1.674719
     20          1           0       -1.070438   -1.652530    0.713773
     21          1           0       -2.036015   -2.211078   -0.639645
     22          1           0       -1.914296    2.008253    0.206083
     23          1           0       -1.439108    1.505218   -1.389037
     24          1           0        0.214129    2.867401    0.593396
     25          1           0        2.493559   -1.291241   -0.879609
     26          1           0        1.386376   -0.882190    1.945820
     27          1           0        1.187364   -2.329402    0.939586
     28          1           0        2.787030   -1.858368    1.498790
     29          1           0        2.781820    1.100099    0.995535
     30          1           0        3.233699    1.098524   -0.724310
     31          1           0        4.045964    0.017191    0.411805
 ---------------------------------------------------------------------

 SCF Done:  E(RHF) =  -459.610876810     A.U. after   10 cycles

      1  C    Isotropic =   220.8129   Anisotropy =    26.6479

      2  C    Isotropic =   216.4375   Anisotropy =     9.2731

      3  C    Isotropic =   190.4388   Anisotropy =    45.3195

      4  C    Isotropic =   216.7184   Anisotropy =    17.0286

      5  C    Isotropic =   209.8615   Anisotropy =    11.7155

      6  C    Isotropic =   217.2210   Anisotropy =    17.1054

      7  C    Isotropic =   214.7536   Anisotropy =    18.7277

      8  O    Isotropic =   353.9210   Anisotropy =    92.0136

      9  C    Isotropic =   211.2598   Anisotropy =    18.5468

     10  C    Isotropic =   224.2923   Anisotropy =    19.7453

     11  C    Isotropic =   220.9329   Anisotropy =    24.8605

     12  H    Isotropic =    32.7462   Anisotropy =     9.5000

     13  H    Isotropic =    32.5802   Anisotropy =    14.1190

     14  H    Isotropic =    32.4833   Anisotropy =    13.8439

     15  H    Isotropic =    32.3949   Anisotropy =    14.1949

     16  H    Isotropic =    32.2199   Anisotropy =     5.1493

     17  H    Isotropic =    32.4591   Anisotropy =    12.3285

     18  H    Isotropic =    32.2409   Anisotropy =    13.4698

     19  H    Isotropic =    31.9202   Anisotropy =    11.3366

     20  H    Isotropic =    33.0142   Anisotropy =     8.3528

     21  H    Isotropic =    32.4197   Anisotropy =    14.7348

     22  H    Isotropic =    32.9470   Anisotropy =    12.1900

     23  H    Isotropic =    32.0528   Anisotropy =    11.9866

     24  H    Isotropic =    35.0898   Anisotropy =    19.1299

     25  H    Isotropic =    32.3988   Anisotropy =    12.7738

     26  H    Isotropic =    32.7537   Anisotropy =     8.8651

     27  H    Isotropic =    32.6354   Anisotropy =    10.0769

     28  H    Isotropic =    32.5495   Anisotropy =    14.7610

     29  H    Isotropic =    32.2303   Anisotropy =     8.9166

     30  H    Isotropic =    32.1667   Anisotropy =    12.2776

     31  H    Isotropic =    32.4775   Anisotropy =    14.8914

 The electronic state is 1-A.
 Alpha  occ. eigenvalues --  -20.23642 -11.08507 -11.04735 -11.04210 -11.04120
 Alpha  occ. eigenvalues --  -11.03673 -11.03603 -11.03594 -11.03356 -11.02769
 Alpha  occ. eigenvalues --  -11.01988  -1.27730  -1.08175  -1.03382  -0.96720
 Alpha  occ. eigenvalues --   -0.94523  -0.88526  -0.87710  -0.80379  -0.78316
 Alpha  occ. eigenvalues --   -0.72914  -0.67990  -0.63502  -0.60877  -0.58783
 Alpha  occ. eigenvalues --   -0.57244  -0.56468  -0.54550  -0.53832  -0.50987
 Alpha  occ. eigenvalues --   -0.50694  -0.49694  -0.49401  -0.47879  -0.47066
 Alpha  occ. eigenvalues --   -0.45599  -0.44696  -0.42266  -0.41852  -0.40605
 Alpha  occ. eigenvalues --   -0.39052  -0.38795  -0.36537  -0.32883
 Alpha virt. eigenvalues --    0.53297   0.55265   0.56707   0.59959   0.60796
 Alpha virt. eigenvalues --    0.61739   0.62449   0.64823   0.65335   0.67021
 Alpha virt. eigenvalues --    0.67271   0.69110   0.70344   0.71522   0.71841

 Mulliken atomic charges:
              1
     1  C   -0.171063
     2  C   -0.024791
     3  C    0.076190
     4  C   -0.102279
     5  C   -0.033641
     6  C   -0.101908
     7  C   -0.114833
     8  O   -0.312163
     9  C   -0.017083
    10  C   -0.176736
    11  C   -0.171799
    12  H    0.050730
    13  H    0.052723
    14  H    0.054404
    15  H    0.048567
    16  H    0.039499
    17  H    0.053013
    18  H    0.048599
    19  H    0.056376
    20  H    0.049386
    21  H    0.051120
    22  H    0.046119
    23  H    0.054247
    24  H    0.175429
    25  H    0.045816
    26  H    0.051083
    27  H    0.052654
    28  H    0.054466
    29  H    0.058506
    30  H    0.058260
    31  H    0.049107
 Sum of Mulliken atomic charges =   0.00000

 Dipole moment (field-independent basis, Debye):
    X=             -1.1401    Y=             -0.3480    Z=              0.5716  Tot=              1.3219
 Quadrupole moment (field-independent basis, Debye-Ang):
   XX=            -69.0428   YY=            -67.4754   ZZ=            -66.8074
   XY=             -2.9816   XZ=              0.3619   YZ=              2.5465

 Summary of Natural Population Analysis:

                                       Natural Population
                Natural  -----------------------------------------------
    Atom  No    Charge         Core      Valence    Rydberg      Total
 -----------------------------------------------------------------------
      C    1   -0.12584      1.99998     4.12586    0.00000     6.12584
      C    2    0.01390      1.99997     3.98613    0.00000     5.98610
      C    3    0.14434      1.99989     3.85577    0.00000     5.85566
      C    4   -0.06477      1.99996     4.06481    0.00000     6.06477
      C    5   -0.01181      1.99995     4.01186    0.00000     6.01181
      C    6   -0.06465      1.99996     4.06469    0.00000     6.06465
      C    7   -0.09173      1.99996     4.09177    0.00000     6.09173
      O    8   -0.33321      1.99999     6.33322    0.00000     8.33321
      C    9    0.02374      1.99996     3.97630    0.00000     5.97626
      C   10   -0.13291      1.99997     4.13294    0.00000     6.13291
      C   11   -0.12864      1.99997     4.12867    0.00000     6.12864
      H   12    0.03352      0.00000     0.96648    0.00000     0.96648
      H   13    0.03536      0.00000     0.96464    0.00000     0.96464
      H   14    0.03695      0.00000     0.96305    0.00000     0.96305
      H   15    0.02423      0.00000     0.97577    0.00000     0.97577
      H   16    0.00367      0.00000     0.99633    0.00000     0.99633
      H   17    0.03203      0.00000     0.96797    0.00000     0.96797
      H   18    0.02764      0.00000     0.97236    0.00000     0.97236
      H   19    0.03040      0.00000     0.96960    0.00000     0.96960
      H   20    0.02835      0.00000     0.97165    0.00000     0.97165
      H   21    0.03066      0.00000     0.96934    0.00000     0.96934
      H   22    0.02652      0.00000     0.97348    0.00000     0.97348
      H   23    0.03356      0.00000     0.96644    0.00000     0.96644
      H   24    0.18787      0.00000     0.81213    0.00000     0.81213
      H   25    0.02060      0.00000     0.97940    0.00000     0.97940
      H   26    0.03402      0.00000     0.96598    0.00000     0.96598
      H   27    0.03534      0.00000     0.96466    0.00000     0.96466
      H   28    0.03760      0.00000     0.96240    0.00000     0.96240
      H   29    0.04053      0.00000     0.95947    0.00000     0.95947
      H   30    0.04052      0.00000     0.95948    0.00000     0.95948
      H   31    0.03220      0.00000     0.96780    0.00000     0.96780
 =======================================================================
   * Total *    0.00000     21.99955    66.00045    0.00000    88.00000

 Normal termination of Gaussian 09 at Tue Aug  3 16:36:18 2021.
