 Gaussian 09, Revision C.01,
 Gaussian 09:  EM64L-G09RevC.01 23-Sep-2011

 ------------------------
 # rhf/STO-3G nmr pop=nbo
 ------------------------

 99/9=1/99;
 -------
 comment
 -------
 Charge =  0 Multiplicity = 1

                         Standard orientation:
 ---------------------------------------------------------------------
 Center     Atomic      Atomic             Coordinates (Angstroms)
 Number     Number       Type             X           Y           Z
 ---------------------------------------------------------------------
      1          6           0        3.218633   -0.773674   -0.599658
      2          6           0        2.034385   -0.025439    0.011694
      3          6           0       -0.181215    1.123328   -0.510788
      4          6           0        0.120246   -0.190407    1.660693
      5          6           0       -0.890488    0.376261    0.639398
      6          6           0        1.335550   -0.890087    1.062351
      7          6           0        1.046652    0.406219   -1.079155
      8          8           0        0.273538    2.390364   -0.015920
      9          6           0       -1.972912   -0.659222    0.206220
     10          6           0       -1.554126   -1.681921   -0.847244
     11          6           0       -3.238759    0.059926   -0.287355
     12          1           0        3.739897   -0.145193   -1.329384
     13          1           0        3.939930   -1.057001    0.174101
     14          1           0        2.893356   -1.686674   -1.109943
     15          1           0        2.428044    0.872306    0.506339
     16          1           0       -0.876548    1.344196   -1.326651
     17          1           0       -0.382284   -0.865699    2.363258
     18          1           0        0.488622    0.647672    2.268677
     19          1           0       -1.444374    1.133165    1.216240
     20          1           0        1.043760   -1.852606    0.631980
     21          1           0        2.040014   -1.123993    1.870551
     22          1           0        0.742263   -0.466007   -1.665322
     23          1           0        1.566149    1.081492   -1.771633
     24          1           0       -0.510862    2.897583    0.254253
     25          1           0       -2.269955   -1.220517    1.102406
     26          1           0       -1.356665   -1.210682   -1.814612
     27          1           0       -0.673623   -2.248526   -0.542884
     28          1           0       -2.357986   -2.410208   -1.006580
     29          1           0       -3.055369    0.619577   -1.209781
     30          1           0       -3.611868    0.759633    0.467935
     31          1           0       -4.038601   -0.661333   -0.488520
 ---------------------------------------------------------------------

 SCF Done:  E(RHF) =  -459.614229533     A.U. after   10 cycles

      1  C    Isotropic =   220.8715   Anisotropy =    28.6210

      2  C    Isotropic =   216.6005   Anisotropy =     7.1668

      3  C    Isotropic =   190.0826   Anisotropy =    40.2805

      4  C    Isotropic =   215.6029   Anisotropy =    16.8042

      5  C    Isotropic =   209.0912   Anisotropy =    13.1721

      6  C    Isotropic =   217.5150   Anisotropy =    15.6590

      7  C    Isotropic =   216.5966   Anisotropy =    17.2443

      8  O    Isotropic =   347.9496   Anisotropy =    93.4553

      9  C    Isotropic =   211.5534   Anisotropy =    19.6717

     10  C    Isotropic =   222.8759   Anisotropy =    18.7037

     11  C    Isotropic =   220.1993   Anisotropy =    28.9474

     12  H    Isotropic =    32.3742   Anisotropy =    13.8973

     13  H    Isotropic =    32.3979   Anisotropy =    14.1564

     14  H    Isotropic =    32.7244   Anisotropy =    11.0488

     15  H    Isotropic =    32.2473   Anisotropy =    11.5259

     16  H    Isotropic =    31.9903   Anisotropy =     9.4374

     17  H    Isotropic =    32.4743   Anisotropy =    13.1700

     18  H    Isotropic =    32.0396   Anisotropy =    13.1705

     19  H    Isotropic =    32.8967   Anisotropy =    11.3609

     20  H    Isotropic =    32.9066   Anisotropy =     9.5734

     21  H    Isotropic =    32.4332   Anisotropy =    14.6747

     22  H    Isotropic =    32.8313   Anisotropy =     9.1658

     23  H    Isotropic =    31.9998   Anisotropy =    13.5709

     24  H    Isotropic =    35.0717   Anisotropy =    18.5773

     25  H    Isotropic =    32.5615   Anisotropy =    11.9572

     26  H    Isotropic =    32.9411   Anisotropy =     8.5400

     27  H    Isotropic =    32.6949   Anisotropy =     9.8440

     28  H    Isotropic =    32.5803   Anisotropy =    14.7751

     29  H    Isotropic =    32.6391   Anisotropy =     9.7787

     30  H    Isotropic =    32.6591   Anisotropy =    13.0362

     31  H    Isotropic =    32.4875   Anisotropy =    14.3535

 The electronic state is 1-A.
 Alpha  occ. eigenvalues --  -20.23446 -11.08513 -11.05000 -11.04332 -11.03966
 Alpha  occ. eigenvalues --  -11.03500 -11.03345 -11.03320 -11.03317 -11.03110
 Alpha  occ. eigenvalues --  -11.02694  -1.27538  -1.07798  -1.03638  -0.96987
 Alpha  occ. eigenvalues --   -0.94568  -0.89520  -0.87824  -0.79076  -0.78314
 Alpha  occ. eigenvalues --   -0.73811  -0.68868  -0.62293  -0.60590  -0.58510
 Alpha  occ. eigenvalues --   -0.58305  -0.55995  -0.55071  -0.53721  -0.51954
 Alpha  occ. eigenvalues --   -0.51035  -0.49886  -0.48676  -0.48064  -0.46910
 Alpha  occ. eigenvalues --   -0.45798  -0.44658  -0.42874  -0.42249  -0.40581
 Alpha  occ. eigenvalues --   -0.39205  -0.38609  -0.36293  -0.33031
 Alpha virt. eigenvalues --    0.52995   0.56334   0.56743   0.59454   0.60597
 Alpha virt. eigenvalues --    0.61708   0.62765   0.63881   0.64362   0.66018
 Alpha virt. eigenvalues --    0.69293   0.70031   0.70780   0.71460   0.72153

 Mulliken atomic charges:
              1
     1  C   -0.171917
     2  C   -0.022406
     3  C    0.073668
     4  C   -0.100139
     5  C   -0.041157
     6  C   -0.101374
     7  C   -0.105673
     8  O   -0.313427
     9  C   -0.020843
    10  C   -0.177436
    11  C   -0.173417
    12  H    0.053903
    13  H    0.053403
    14  H    0.050783
    15  H    0.057057
    16  H    0.042047
    17  H    0.049032
    18  H    0.051756
    19  H    0.042570
    20  H    0.045383
    21  H    0.049467
    22  H    0.054197
    23  H    0.059233
    24  H    0.173616
    25  H    0.049319
    26  H    0.054020
    27  H    0.056581
    28  H    0.055110
    29  H    0.051248
    30  H    0.050985
    31  H    0.054409
 Sum of Mulliken atomic charges =   0.00000

 Dipole moment (field-independent basis, Debye):
    X=             -1.2766    Y=             -0.4790    Z=              0.0442  Tot=              1.3642
 Quadrupole moment (field-independent basis, Debye-Ang):
   XX=            -67.8294   YY=            -68.5125   ZZ=            -67.1921
   XY=             -2.9658   XZ=             -0.1301   YZ=              0.4111

 Summary of Natural Population Analysis:

                                       Natural Population
                Natural  -----------------------------------------------
    Atom  No    Charge         Core      Valence    Rydberg      Total
 -----------------------------------------------------------------------
      C    1   -0.12674      1.99997     4.12676    0.00000     6.12674
      C    2    0.01477      1.99997     3.98526    0.00000     5.98523
      C    3    0.14308      1.99988     3.85703    0.00000     5.85692
      C    4   -0.06287      1.99996     4.06291    0.00000     6.06287
      C    5   -0.02013      1.99995     4.02018    0.00000     6.02013
      C    6   -0.06479      1.99996     4.06482    0.00000     6.06479
      C    7   -0.08179      1.99995     4.08183    0.00000     6.08179
      O    8   -0.33477      1.99999     6.33478    0.00000     8.33477
      C    9    0.02040      1.99996     3.97964    0.00000     5.97960
      C   10   -0.13409      1.99997     4.13412    0.00000     6.13409
      C   11   -0.12854      1.99997     4.12857    0.00000     6.12854
      H   12    0.03659      0.00000     0.96341    0.00000     0.96341
      H   13    0.03620      0.00000     0.96380    0.00000     0.96380
      H   14    0.03365      0.00000     0.96635    0.00000     0.96635
      H   15    0.03205      0.00000     0.96795    0.00000     0.96795
      H   16    0.00618      0.00000     0.99382    0.00000     0.99382
      H   17    0.02816      0.00000     0.97184    0.00000     0.97184
      H   18    0.03045      0.00000     0.96955    0.00000     0.96955
      H   19    0.01837      0.00000     0.98163    0.00000     0.98163
      H   20    0.02465      0.00000     0.97535    0.00000     0.97535
      H   21    0.02939      0.00000     0.97061    0.00000     0.97061
      H   22    0.03323      0.00000     0.96677    0.00000     0.96677
      H   23    0.03836      0.00000     0.96164    0.00000     0.96164
      H   24    0.18583      0.00000     0.81417    0.00000     0.81417
      H   25    0.02393      0.00000     0.97607    0.00000     0.97607
      H   26    0.03704      0.00000     0.96296    0.00000     0.96296
      H   27    0.03876      0.00000     0.96124    0.00000     0.96124
      H   28    0.03843      0.00000     0.96157    0.00000     0.96157
      H   29    0.03368      0.00000     0.96632    0.00000     0.96632
      H   30    0.03356      0.00000     0.96644    0.00000     0.96644
      H   31    0.03694      0.00000     0.96306    0.00000     0.96306
 =======================================================================
   * Total *    0.00000     21.99954    66.00046    0.00000    88.00000

 Normal termination of Gaussian 09 at Tue Aug  3 16:36:09 2021.
