 Gaussian 09, Revision C.01,
 Gaussian 09:  EM64L-G09RevC.01 23-Sep-2011

 ------------------------
 # rhf/STO-3G nmr pop=nbo
 ------------------------

 99/9=1/99;
 -------
 comment
 -------
 Charge =  0 Multiplicity = 1

                         Standard orientation:
 ---------------------------------------------------------------------
 Center     Atomic      Atomic             Coordinates (Angstroms)
 Number     Number       Type             X           Y           Z
 ---------------------------------------------------------------------
      1          6           0        3.057704   -0.979208   -0.954104
      2          6           0        2.023515   -0.283164   -0.070467
      3          6           0        0.085519    1.374067   -0.066214
      4          6           0        0.014732   -0.640519    1.432549
      5          6           0       -0.846584    0.324546    0.585905
      6          6           0        1.117488   -1.313469    0.616265
      7          6           0        1.205159    0.729373   -0.888831
      8          8           0        0.690943    2.175341    0.953335
      9          6           0       -1.760638   -0.410489   -0.445917
     10          6           0       -2.638393    0.570028   -1.236109
     11          6           0       -2.677345   -1.442572    0.225209
     12          1           0        3.667685   -1.672410   -0.365369
     13          1           0        2.577204   -1.548760   -1.756847
     14          1           0        3.730799   -0.247816   -1.413663
     15          1           0        2.569243    0.264102    0.709784
     16          1           0       -0.473591    2.068651   -0.698709
     17          1           0       -0.602162   -1.401086    1.920640
     18          1           0        0.480246   -0.078674    2.253204
     19          1           0       -1.503785    0.851175    1.292541
     20          1           0        0.672340   -1.983755   -0.128605
     21          1           0        1.719073   -1.945134    1.281292
     22          1           0        0.779410    0.240080   -1.772874
     23          1           0        1.882830    1.512441   -1.252214
     24          1           0       -0.025662    2.603583    1.451917
     25          1           0       -1.141025   -0.949662   -1.171789
     26          1           0       -3.212435    1.217561   -0.564946
     27          1           0       -2.039761    1.201537   -1.898584
     28          1           0       -3.348264    0.032829   -1.874916
     29          1           0       -2.106412   -2.282212    0.631835
     30          1           0       -3.384288   -1.866548   -0.496624
     31          1           0       -3.255925   -0.990197    1.037530
 ---------------------------------------------------------------------

 SCF Done:  E(RHF) =  -459.620261745     A.U. after   10 cycles

      1  C    Isotropic =   220.9768   Anisotropy =    28.4354

      2  C    Isotropic =   215.8351   Anisotropy =     8.5454

      3  C    Isotropic =   189.1216   Anisotropy =    39.4126

      4  C    Isotropic =   218.8387   Anisotropy =    14.2411

      5  C    Isotropic =   208.1481   Anisotropy =    16.3478

      6  C    Isotropic =   217.8258   Anisotropy =    17.8798

      7  C    Isotropic =   217.0502   Anisotropy =    18.1904

      8  O    Isotropic =   353.2605   Anisotropy =    92.0196

      9  C    Isotropic =   215.2055   Anisotropy =    14.1158

     10  C    Isotropic =   221.6004   Anisotropy =    25.5696

     11  C    Isotropic =   221.4591   Anisotropy =    25.6016

     12  H    Isotropic =    32.3908   Anisotropy =    14.0908

     13  H    Isotropic =    32.7170   Anisotropy =    11.0700

     14  H    Isotropic =    32.3718   Anisotropy =    13.9916

     15  H    Isotropic =    32.1793   Anisotropy =    11.5295

     16  H    Isotropic =    31.8462   Anisotropy =     9.9314

     17  H    Isotropic =    32.4218   Anisotropy =    12.6933

     18  H    Isotropic =    32.1951   Anisotropy =    12.6239

     19  H    Isotropic =    33.1442   Anisotropy =    11.1628

     20  H    Isotropic =    32.8580   Anisotropy =     9.0058

     21  H    Isotropic =    32.4533   Anisotropy =    14.6454

     22  H    Isotropic =    32.7748   Anisotropy =     9.1610

     23  H    Isotropic =    32.0030   Anisotropy =    13.9271

     24  H    Isotropic =    35.0954   Anisotropy =    18.6274

     25  H    Isotropic =    32.7255   Anisotropy =     8.6030

     26  H    Isotropic =    32.7870   Anisotropy =    11.8692

     27  H    Isotropic =    32.5269   Anisotropy =    10.6733

     28  H    Isotropic =    32.5874   Anisotropy =    14.1045

     29  H    Isotropic =    32.3533   Anisotropy =    10.6998

     30  H    Isotropic =    32.5782   Anisotropy =    14.0977

     31  H    Isotropic =    32.7049   Anisotropy =    11.9809

 The electronic state is 1-A.
 Alpha  occ. eigenvalues --  -20.23571 -11.08334 -11.05003 -11.04422 -11.04003
 Alpha  occ. eigenvalues --  -11.03620 -11.03333 -11.03224 -11.03215 -11.03147
 Alpha  occ. eigenvalues --  -11.02727  -1.27645  -1.07900  -1.03431  -0.96788
 Alpha  occ. eigenvalues --   -0.94828  -0.89010  -0.87732  -0.79105  -0.77675
 Alpha  occ. eigenvalues --   -0.74529  -0.68578  -0.63069  -0.60920  -0.58767
 Alpha  occ. eigenvalues --   -0.56850  -0.56649  -0.54727  -0.53555  -0.51350
 Alpha  occ. eigenvalues --   -0.50741  -0.50179  -0.48638  -0.47904  -0.47420
 Alpha  occ. eigenvalues --   -0.45774  -0.44124  -0.43544  -0.42032  -0.41329
 Alpha  occ. eigenvalues --   -0.38936  -0.38638  -0.36394  -0.32919
 Alpha virt. eigenvalues --    0.52697   0.56626   0.57122   0.60026   0.61295
 Alpha virt. eigenvalues --    0.61723   0.62898   0.63415   0.65078   0.67353
 Alpha virt. eigenvalues --    0.69307   0.70173   0.70946   0.71298   0.72375

 Mulliken atomic charges:
              1
     1  C   -0.172208
     2  C   -0.022353
     3  C    0.073901
     4  C   -0.102873
     5  C   -0.039752
     6  C   -0.100756
     7  C   -0.105135
     8  O   -0.313737
     9  C   -0.022508
    10  C   -0.174386
    11  C   -0.173127
    12  H    0.053582
    13  H    0.050627
    14  H    0.053852
    15  H    0.057016
    16  H    0.043276
    17  H    0.051058
    18  H    0.054670
    19  H    0.039049
    20  H    0.044963
    21  H    0.049574
    22  H    0.050817
    23  H    0.058952
    24  H    0.174379
    25  H    0.048609
    26  H    0.051735
    27  H    0.053579
    28  H    0.055141
    29  H    0.055166
    30  H    0.054390
    31  H    0.052500
 Sum of Mulliken atomic charges =   0.00000

 Dipole moment (field-independent basis, Debye):
    X=             -1.2869    Y=             -0.2359    Z=             -0.1700  Tot=              1.3193
 Quadrupole moment (field-independent basis, Debye-Ang):
   XX=            -68.9676   YY=            -68.0534   ZZ=            -66.8870
   XY=             -3.0403   XZ=             -1.3688   YZ=              0.3823

 Summary of Natural Population Analysis:

                                       Natural Population
                Natural  -----------------------------------------------
    Atom  No    Charge         Core      Valence    Rydberg      Total
 -----------------------------------------------------------------------
      C    1   -0.12739      1.99997     4.12741    0.00000     6.12739
      C    2    0.01519      1.99997     3.98484    0.00000     5.98481
      C    3    0.14208      1.99988     3.85803    0.00000     5.85792
      C    4   -0.06592      1.99995     4.06597    0.00000     6.06592
      C    5   -0.01682      1.99995     4.01686    0.00000     6.01682
      C    6   -0.06339      1.99996     4.06343    0.00000     6.06339
      C    7   -0.08057      1.99996     4.08062    0.00000     6.08057
      O    8   -0.33487      1.99999     6.33488    0.00000     8.33487
      C    9    0.01922      1.99996     3.98082    0.00000     5.98078
      C   10   -0.13002      1.99997     4.13005    0.00000     6.13002
      C   11   -0.12885      1.99997     4.12889    0.00000     6.12885
      H   12    0.03639      0.00000     0.96361    0.00000     0.96361
      H   13    0.03353      0.00000     0.96647    0.00000     0.96647
      H   14    0.03658      0.00000     0.96342    0.00000     0.96342
      H   15    0.03174      0.00000     0.96826    0.00000     0.96826
      H   16    0.00687      0.00000     0.99313    0.00000     0.99313
      H   17    0.02965      0.00000     0.97035    0.00000     0.97035
      H   18    0.03317      0.00000     0.96683    0.00000     0.96683
      H   19    0.01427      0.00000     0.98573    0.00000     0.98573
      H   20    0.02430      0.00000     0.97570    0.00000     0.97570
      H   21    0.02910      0.00000     0.97090    0.00000     0.97090
      H   22    0.03043      0.00000     0.96957    0.00000     0.96957
      H   23    0.03778      0.00000     0.96222    0.00000     0.96222
      H   24    0.18675      0.00000     0.81325    0.00000     0.81325
      H   25    0.02284      0.00000     0.97716    0.00000     0.97716
      H   26    0.03446      0.00000     0.96554    0.00000     0.96554
      H   27    0.03598      0.00000     0.96402    0.00000     0.96402
      H   28    0.03783      0.00000     0.96217    0.00000     0.96217
      H   29    0.03744      0.00000     0.96256    0.00000     0.96256
      H   30    0.03709      0.00000     0.96291    0.00000     0.96291
      H   31    0.03513      0.00000     0.96487    0.00000     0.96487
 =======================================================================
   * Total *    0.00000     21.99953    66.00047    0.00000    88.00000

 Normal termination of Gaussian 09 at Tue Aug  3 16:36:12 2021.
