 Gaussian 09, Revision C.01,
 Gaussian 09:  EM64L-G09RevC.01 23-Sep-2011

 ------------------------
 # rhf/STO-3G nmr pop=nbo
 ------------------------

 99/9=1/99;
 -------
 comment
 -------
 Charge =  0 Multiplicity = 1

                         Standard orientation:
 ---------------------------------------------------------------------
 Center     Atomic      Atomic             Coordinates (Angstroms)
 Number     Number       Type             X           Y           Z
 ---------------------------------------------------------------------
      1          6           0       -2.845516   -0.160207    1.183847
      2          6           0       -2.412666    0.117990   -0.257902
      3          6           0       -0.028787    0.945820    0.188303
      4          6           0       -0.425274   -1.477796   -0.406769
      5          6           0        0.557245   -0.292579   -0.525559
      6          6           0       -1.819695   -1.127557   -0.925020
      7          6           0       -1.426776    1.287042   -0.340100
      8          8           0        0.783535    2.094676   -0.027419
      9          6           0        1.981426   -0.732764   -0.066727
     10          6           0        2.151047   -0.814322    1.452083
     11          6           0        3.094250    0.130243   -0.671595
     12          1           0       -2.008362   -0.454812    1.823152
     13          1           0       -3.305714    0.730339    1.625174
     14          1           0       -3.587371   -0.965459    1.213209
     15          1           0       -3.317298    0.399427   -0.812625
     16          1           0       -0.092504    0.778997    1.269283
     17          1           0       -0.496747   -1.812602    0.633987
     18          1           0       -0.046188   -2.330966   -0.982760
     19          1           0        0.637538   -0.049457   -1.595359
     20          1           0       -2.488287   -1.985825   -0.788367
     21          1           0       -1.757186   -0.952904   -2.007048
     22          1           0       -1.820976    2.158806    0.197945
     23          1           0       -1.341626    1.612321   -1.386334
     24          1           0        1.469135    2.100781    0.661184
     25          1           0        2.148155   -1.744902   -0.461279
     26          1           0        2.102974    0.173542    1.920592
     27          1           0        1.384953   -1.448086    1.907982
     28          1           0        3.125623   -1.247446    1.703594
     29          1           0        3.129470    1.133350   -0.240793
     30          1           0        2.973352    0.224172   -1.755679
     31          1           0        4.071259   -0.331905   -0.489862
 ---------------------------------------------------------------------

 SCF Done:  E(RHF) =  -459.617043374     A.U. after   10 cycles

      1  C    Isotropic =   222.9717   Anisotropy =    24.2093

      2  C    Isotropic =   216.2317   Anisotropy =     3.9037

      3  C    Isotropic =   189.2796   Anisotropy =    44.0114

      4  C    Isotropic =   217.2533   Anisotropy =    20.9660

      5  C    Isotropic =   208.5747   Anisotropy =    13.3603

      6  C    Isotropic =   216.6816   Anisotropy =    11.2066

      7  C    Isotropic =   215.8930   Anisotropy =    15.6300

      8  O    Isotropic =   364.6275   Anisotropy =    74.8470

      9  C    Isotropic =   212.2058   Anisotropy =    19.2895

     10  C    Isotropic =   224.2462   Anisotropy =    19.5559

     11  C    Isotropic =   219.9566   Anisotropy =    28.0159

     12  H    Isotropic =    32.7276   Anisotropy =     7.8465

     13  H    Isotropic =    32.5839   Anisotropy =    14.0550

     14  H    Isotropic =    32.6278   Anisotropy =    14.3958

     15  H    Isotropic =    32.3513   Anisotropy =    15.5196

     16  H    Isotropic =    32.2218   Anisotropy =     5.1195

     17  H    Isotropic =    32.7675   Anisotropy =     8.5288

     18  H    Isotropic =    32.5806   Anisotropy =    13.4819

     19  H    Isotropic =    32.4230   Anisotropy =     9.5395

     20  H    Isotropic =    32.5197   Anisotropy =    14.6173

     21  H    Isotropic =    32.4447   Anisotropy =    13.3484

     22  H    Isotropic =    32.0408   Anisotropy =    13.5580

     23  H    Isotropic =    32.1117   Anisotropy =    12.4599

     24  H    Isotropic =    34.7300   Anisotropy =    16.4746

     25  H    Isotropic =    32.5195   Anisotropy =    11.7028

     26  H    Isotropic =    33.2343   Anisotropy =     9.5687

     27  H    Isotropic =    32.6463   Anisotropy =    10.7218

     28  H    Isotropic =    32.5788   Anisotropy =    14.6547

     29  H    Isotropic =    32.7349   Anisotropy =     9.2754

     30  H    Isotropic =    32.2944   Anisotropy =    12.5703

     31  H    Isotropic =    32.4560   Anisotropy =    14.7327

 The electronic state is 1-A.
 Alpha  occ. eigenvalues --  -20.23718 -11.08457 -11.04831 -11.04644 -11.03988
 Alpha  occ. eigenvalues --  -11.03688 -11.03600 -11.03560 -11.03388 -11.03142
 Alpha  occ. eigenvalues --  -11.02980  -1.27865  -1.08215  -1.03873  -0.96773
 Alpha  occ. eigenvalues --   -0.94516  -0.89312  -0.88279  -0.79495  -0.78700
 Alpha  occ. eigenvalues --   -0.72615  -0.69632  -0.62268  -0.61257  -0.59622
 Alpha  occ. eigenvalues --   -0.57618  -0.56542  -0.54379  -0.53433  -0.52631
 Alpha  occ. eigenvalues --   -0.50895  -0.50614  -0.49528  -0.48181  -0.46560
 Alpha  occ. eigenvalues --   -0.45391  -0.43955  -0.43164  -0.41885  -0.41558
 Alpha  occ. eigenvalues --   -0.40155  -0.37984  -0.37301  -0.32578
 Alpha virt. eigenvalues --    0.52842   0.55279   0.56436   0.59415   0.60787
 Alpha virt. eigenvalues --    0.61971   0.63649   0.65263   0.66020   0.66759
 Alpha virt. eigenvalues --    0.67537   0.68469   0.70438   0.70861   0.71102

 Mulliken atomic charges:
              1
     1  C   -0.174847
     2  C   -0.024496
     3  C    0.075998
     4  C   -0.101969
     5  C   -0.039900
     6  C   -0.100362
     7  C   -0.105377
     8  O   -0.313130
     9  C   -0.022828
    10  C   -0.175417
    11  C   -0.172889
    12  H    0.051592
    13  H    0.054289
    14  H    0.053867
    15  H    0.050584
    16  H    0.040927
    17  H    0.046301
    18  H    0.050070
    19  H    0.051214
    20  H    0.050188
    21  H    0.048364
    22  H    0.055757
    23  H    0.055944
    24  H    0.177769
    25  H    0.049362
    26  H    0.045548
    27  H    0.055051
    28  H    0.056874
    29  H    0.052469
    30  H    0.057050
    31  H    0.051996
 Sum of Mulliken atomic charges =   0.00000

 Dipole moment (field-independent basis, Debye):
    X=              0.1008    Y=             -1.0572    Z=              0.8771  Tot=              1.3774
 Quadrupole moment (field-independent basis, Debye-Ang):
   XX=            -66.3799   YY=            -70.9980   ZZ=            -66.9143
   XY=             -0.3121   XZ=              1.5725   YZ=              2.3311

 Summary of Natural Population Analysis:

                                       Natural Population
                Natural  -----------------------------------------------
    Atom  No    Charge         Core      Valence    Rydberg      Total
 -----------------------------------------------------------------------
      C    1   -0.12998      1.99997     4.13001    0.00000     6.12998
      C    2    0.01378      1.99997     3.98625    0.00000     5.98622
      C    3    0.14333      1.99989     3.85678    0.00000     5.85667
      C    4   -0.06361      1.99996     4.06365    0.00000     6.06361
      C    5   -0.01974      1.99995     4.01978    0.00000     6.01974
      C    6   -0.06329      1.99996     4.06332    0.00000     6.06329
      C    7   -0.08178      1.99996     4.08183    0.00000     6.08178
      O    8   -0.33426      1.99999     6.33427    0.00000     8.33426
      C    9    0.01775      1.99996     3.98229    0.00000     5.98225
      C   10   -0.13102      1.99997     4.13105    0.00000     6.13102
      C   11   -0.12888      1.99997     4.12891    0.00000     6.12888
      H   12    0.03438      0.00000     0.96562    0.00000     0.96562
      H   13    0.03708      0.00000     0.96292    0.00000     0.96292
      H   14    0.03672      0.00000     0.96328    0.00000     0.96328
      H   15    0.02642      0.00000     0.97358    0.00000     0.97358
      H   16    0.00617      0.00000     0.99383    0.00000     0.99383
      H   17    0.02511      0.00000     0.97489    0.00000     0.97489
      H   18    0.02919      0.00000     0.97081    0.00000     0.97081
      H   19    0.02564      0.00000     0.97436    0.00000     0.97436
      H   20    0.02957      0.00000     0.97043    0.00000     0.97043
      H   21    0.02766      0.00000     0.97234    0.00000     0.97234
      H   22    0.03475      0.00000     0.96525    0.00000     0.96525
      H   23    0.03493      0.00000     0.96507    0.00000     0.96507
      H   24    0.19036      0.00000     0.80964    0.00000     0.80964
      H   25    0.02424      0.00000     0.97576    0.00000     0.97576
      H   26    0.02903      0.00000     0.97097    0.00000     0.97097
      H   27    0.03763      0.00000     0.96237    0.00000     0.96237
      H   28    0.03971      0.00000     0.96029    0.00000     0.96029
      H   29    0.03476      0.00000     0.96524    0.00000     0.96524
      H   30    0.03951      0.00000     0.96049    0.00000     0.96049
      H   31    0.03485      0.00000     0.96515    0.00000     0.96515
 =======================================================================
   * Total *    0.00000     21.99955    66.00045    0.00000    88.00000

 Normal termination of Gaussian 09 at Sun May 24 02:09:18 2020.
