 Gaussian 09, Revision C.01,
 Gaussian 09:  EM64L-G09RevC.01 23-Sep-2011

 ------------------------
 # rhf/STO-3G nmr pop=nbo
 ------------------------

 99/9=1/99;
 -------
 comment
 -------
 Charge =  0 Multiplicity = 1

                         Standard orientation:
 ---------------------------------------------------------------------
 Center     Atomic      Atomic             Coordinates (Angstroms)
 Number     Number       Type             X           Y           Z
 ---------------------------------------------------------------------
      1          6           0       -2.812938   -0.224533    1.194365
      2          6           0       -2.400769    0.113240   -0.240669
      3          6           0       -0.014031    0.935681    0.207262
      4          6           0       -0.413025   -1.470291   -0.471171
      5          6           0        0.566780   -0.280533   -0.547037
      6          6           0       -1.810655   -1.100772   -0.966053
      7          6           0       -1.421661    1.289598   -0.287837
      8          8           0        0.815776    2.076297    0.010745
      9          6           0        1.994153   -0.726777   -0.101509
     10          6           0        2.140178   -0.941396    1.407463
     11          6           0        3.093817    0.220968   -0.592940
     12          1           0       -3.277061    0.643568    1.674631
     13          1           0       -3.545758   -1.038479    1.201985
     14          1           0       -1.964741   -0.533160    1.812165
     15          1           0       -3.313854    0.412159   -0.771895
     16          1           0       -0.047169    0.734325    1.283090
     17          1           0       -0.481339   -1.847548    0.554824
     18          1           0       -0.034784   -2.298786   -1.082578
     19          1           0        0.649351   -0.000574   -1.607797
     20          1           0       -2.477126   -1.965247   -0.862039
     21          1           0       -1.755462   -0.879347   -2.039853
     22          1           0       -1.814481    2.136346    0.289562
     23          1           0       -1.351151    1.657225   -1.320979
     24          1           0        0.436186    2.809070    0.525009
     25          1           0        2.193349   -1.693280   -0.585145
     26          1           0        2.045483   -0.002223    1.961656
     27          1           0        1.393691   -1.642874    1.790068
     28          1           0        3.126811   -1.358445    1.638630
     29          1           0        3.100984    1.167318   -0.045300
     30          1           0        2.980855    0.436981   -1.660185
     31          1           0        4.078913   -0.238511   -0.453056
 ---------------------------------------------------------------------

 SCF Done:  E(RHF) =  -459.619078840     A.U. after   10 cycles

      1  C    Isotropic =   223.0527   Anisotropy =    24.1334

      2  C    Isotropic =   216.3545   Anisotropy =     3.9358

      3  C    Isotropic =   190.0813   Anisotropy =    43.2764

      4  C    Isotropic =   217.7292   Anisotropy =    19.9810

      5  C    Isotropic =   208.7309   Anisotropy =    14.4207

      6  C    Isotropic =   216.6957   Anisotropy =    11.2574

      7  C    Isotropic =   214.4060   Anisotropy =    17.1531

      8  O    Isotropic =   356.9380   Anisotropy =    90.7730

      9  C    Isotropic =   211.8755   Anisotropy =    18.9730

     10  C    Isotropic =   224.0502   Anisotropy =    19.9900

     11  C    Isotropic =   220.1495   Anisotropy =    27.6002

     12  H    Isotropic =    32.7014   Anisotropy =    13.9754

     13  H    Isotropic =    32.6368   Anisotropy =    14.3617

     14  H    Isotropic =    32.7103   Anisotropy =     7.9237

     15  H    Isotropic =    32.4210   Anisotropy =    15.3640

     16  H    Isotropic =    32.1975   Anisotropy =     5.4922

     17  H    Isotropic =    32.6881   Anisotropy =     8.6789

     18  H    Isotropic =    32.5107   Anisotropy =    13.7282

     19  H    Isotropic =    32.3756   Anisotropy =     9.5413

     20  H    Isotropic =    32.5041   Anisotropy =    14.6352

     21  H    Isotropic =    32.4591   Anisotropy =    13.3497

     22  H    Isotropic =    32.8381   Anisotropy =    12.8707

     23  H    Isotropic =    32.2218   Anisotropy =    12.1046

     24  H    Isotropic =    35.1202   Anisotropy =    19.2794

     25  H    Isotropic =    32.4903   Anisotropy =    12.0406

     26  H    Isotropic =    32.5675   Anisotropy =     9.3324

     27  H    Isotropic =    32.6319   Anisotropy =    10.6794

     28  H    Isotropic =    32.4909   Anisotropy =    14.8144

     29  H    Isotropic =    31.9014   Anisotropy =     9.4166

     30  H    Isotropic =    32.3379   Anisotropy =    12.2424

     31  H    Isotropic =    32.4276   Anisotropy =    14.9332

 The electronic state is 1-A.
 Alpha  occ. eigenvalues --  -20.23687 -11.08506 -11.04867 -11.04219 -11.04115
 Alpha  occ. eigenvalues --  -11.03711 -11.03678 -11.03621 -11.03337 -11.02645
 Alpha  occ. eigenvalues --  -11.01713  -1.27845  -1.08219  -1.03348  -0.96590
 Alpha  occ. eigenvalues --   -0.94504  -0.88404  -0.88122  -0.79427  -0.79016
 Alpha  occ. eigenvalues --   -0.72061  -0.69573  -0.61950  -0.60637  -0.59364
 Alpha  occ. eigenvalues --   -0.57564  -0.56394  -0.55260  -0.53165  -0.51237
 Alpha  occ. eigenvalues --   -0.51223  -0.49690  -0.49022  -0.47918  -0.46392
 Alpha  occ. eigenvalues --   -0.45632  -0.44492  -0.42819  -0.41682  -0.40419
 Alpha  occ. eigenvalues --   -0.39563  -0.38489  -0.36588  -0.32968
 Alpha virt. eigenvalues --    0.53225   0.55405   0.56582   0.60152   0.61351
 Alpha virt. eigenvalues --    0.62195   0.63394   0.65374   0.66684   0.66925
 Alpha virt. eigenvalues --    0.68365   0.68745   0.70363   0.70883   0.72469

 Mulliken atomic charges:
              1
     1  C   -0.175245
     2  C   -0.024123
     3  C    0.075806
     4  C   -0.102002
     5  C   -0.031991
     6  C   -0.100241
     7  C   -0.113567
     8  O   -0.313433
     9  C   -0.016691
    10  C   -0.175182
    11  C   -0.172826
    12  H    0.053007
    13  H    0.054643
    14  H    0.053074
    15  H    0.049877
    16  H    0.040573
    17  H    0.048289
    18  H    0.051863
    19  H    0.051830
    20  H    0.050629
    21  H    0.048405
    22  H    0.044163
    23  H    0.054760
    24  H    0.176070
    25  H    0.045658
    26  H    0.054714
    27  H    0.050537
    28  H    0.054234
    29  H    0.066819
    30  H    0.052561
    31  H    0.047790
 Sum of Mulliken atomic charges =   0.00000

 Dipole moment (field-independent basis, Debye):
    X=             -1.2153    Y=             -0.1083    Z=              0.6418  Tot=              1.3786
 Quadrupole moment (field-independent basis, Debye-Ang):
   XX=            -69.4133   YY=            -66.2012   ZZ=            -67.1761
   XY=             -2.5194   XZ=              0.5256   YZ=              2.3942

 Summary of Natural Population Analysis:

                                       Natural Population
                Natural  -----------------------------------------------
    Atom  No    Charge         Core      Valence    Rydberg      Total
 -----------------------------------------------------------------------
      C    1   -0.13041      1.99997     4.13044    0.00000     6.13041
      C    2    0.01434      1.99997     3.98569    0.00000     5.98566
      C    3    0.14350      1.99989     3.85661    0.00000     5.85650
      C    4   -0.06423      1.99996     4.06428    0.00000     6.06423
      C    5   -0.01005      1.99995     4.01010    0.00000     6.01005
      C    6   -0.06314      1.99996     4.06318    0.00000     6.06314
      C    7   -0.08972      1.99996     4.08976    0.00000     6.08972
      O    8   -0.33440      1.99999     6.33441    0.00000     8.33440
      C    9    0.02423      1.99996     3.97581    0.00000     5.97577
      C   10   -0.13124      1.99997     4.13127    0.00000     6.13124
      C   11   -0.12949      1.99997     4.12952    0.00000     6.12949
      H   12    0.03593      0.00000     0.96407    0.00000     0.96407
      H   13    0.03746      0.00000     0.96254    0.00000     0.96254
      H   14    0.03573      0.00000     0.96427    0.00000     0.96427
      H   15    0.02569      0.00000     0.97431    0.00000     0.97431
      H   16    0.00471      0.00000     0.99529    0.00000     0.99529
      H   17    0.02694      0.00000     0.97306    0.00000     0.97306
      H   18    0.03100      0.00000     0.96900    0.00000     0.96900
      H   19    0.02594      0.00000     0.97406    0.00000     0.97406
      H   20    0.02998      0.00000     0.97002    0.00000     0.97002
      H   21    0.02768      0.00000     0.97232    0.00000     0.97232
      H   22    0.02439      0.00000     0.97561    0.00000     0.97561
      H   23    0.03391      0.00000     0.96609    0.00000     0.96609
      H   24    0.18864      0.00000     0.81136    0.00000     0.81136
      H   25    0.02041      0.00000     0.97959    0.00000     0.97959
      H   26    0.03732      0.00000     0.96268    0.00000     0.96268
      H   27    0.03339      0.00000     0.96661    0.00000     0.96661
      H   28    0.03733      0.00000     0.96267    0.00000     0.96267
      H   29    0.04779      0.00000     0.95221    0.00000     0.95221
      H   30    0.03540      0.00000     0.96460    0.00000     0.96460
      H   31    0.03098      0.00000     0.96902    0.00000     0.96902
 =======================================================================
   * Total *    0.00000     21.99955    66.00045    0.00000    88.00000

 Normal termination of Gaussian 09 at Tue Aug  3 16:36:54 2021.
