 Gaussian 09, Revision C.01,
 Gaussian 09:  EM64L-G09RevC.01 23-Sep-2011

 ------------------------
 # rhf/STO-3G nmr pop=nbo
 ------------------------

 99/9=1/99;
 -------
 comment
 -------
 Charge =  0 Multiplicity = 1

                         Standard orientation:
 ---------------------------------------------------------------------
 Center     Atomic      Atomic             Coordinates (Angstroms)
 Number     Number       Type             X           Y           Z
 ---------------------------------------------------------------------
      1          6           0        3.131666   -1.175491   -0.237394
      2          6           0        1.988390   -0.266940    0.213795
      3          6           0        0.161726    1.309478   -0.589228
      4          6           0       -0.236028   -0.198058    1.436469
      5          6           0       -0.893927    0.624777    0.310100
      6          6           0        0.948002   -1.062029    1.004845
      7          6           0        1.340180    0.423907   -0.991959
      8          8           0        0.710769    2.426478    0.124111
      9          6           0       -2.010557   -0.108648   -0.494832
     10          6           0       -3.287597   -0.247448    0.349833
     11          6           0       -1.653142   -1.480060   -1.062520
     12          1           0        2.772507   -1.968844   -0.901743
     13          1           0        3.893665   -0.602114   -0.775734
     14          1           0        3.614831   -1.648254    0.624167
     15          1           0        2.414374    0.500139    0.873857
     16          1           0       -0.305380    1.720025   -1.491397
     17          1           0       -0.975531   -0.823183    1.947874
     18          1           0        0.130789    0.506404    2.195830
     19          1           0       -1.416500    1.443110    0.829120
     20          1           0        0.602195   -1.914477    0.412350
     21          1           0        1.416516   -1.488093    1.900959
     22          1           0        1.020640   -0.321232   -1.726095
     23          1           0        2.099984    1.042174   -1.487928
     24          1           0       -0.014078    3.052842    0.290728
     25          1           0       -2.276620    0.534190   -1.344858
     26          1           0       -3.139180   -0.912114    1.206447
     27          1           0       -3.616860    0.726806    0.726199
     28          1           0       -4.105388   -0.658406   -0.252519
     29          1           0       -1.491355   -2.217501   -0.270888
     30          1           0       -0.769075   -1.443766   -1.699600
     31          1           0       -2.473953   -1.856454   -1.684312
 ---------------------------------------------------------------------

 SCF Done:  E(RHF) =  -459.614687589     A.U. after   10 cycles

      1  C    Isotropic =   220.8670   Anisotropy =    28.6309

      2  C    Isotropic =   216.6234   Anisotropy =     7.2238

      3  C    Isotropic =   186.3680   Anisotropy =    35.8988

      4  C    Isotropic =   219.9322   Anisotropy =    12.9953

      5  C    Isotropic =   208.7121   Anisotropy =    18.6379

      6  C    Isotropic =   217.4025   Anisotropy =    16.1737

      7  C    Isotropic =   216.6749   Anisotropy =    16.7968

      8  O    Isotropic =   345.2856   Anisotropy =    87.7539

      9  C    Isotropic =   212.2376   Anisotropy =    18.4818

     10  C    Isotropic =   220.0911   Anisotropy =    29.1678

     11  C    Isotropic =   223.1364   Anisotropy =    18.4490

     12  H    Isotropic =    32.7252   Anisotropy =    11.0431

     13  H    Isotropic =    32.3679   Anisotropy =    14.0149

     14  H    Isotropic =    32.4038   Anisotropy =    14.0450

     15  H    Isotropic =    32.2436   Anisotropy =    11.5197

     16  H    Isotropic =    32.0038   Anisotropy =    10.1348

     17  H    Isotropic =    32.4818   Anisotropy =    12.3628

     18  H    Isotropic =    32.2414   Anisotropy =    13.4620

     19  H    Isotropic =    32.9329   Anisotropy =    11.3784

     20  H    Isotropic =    32.9407   Anisotropy =     9.1571

     21  H    Isotropic =    32.4782   Anisotropy =    14.4242

     22  H    Isotropic =    32.8209   Anisotropy =     9.5933

     23  H    Isotropic =    31.9513   Anisotropy =    13.8227

     24  H    Isotropic =    34.9240   Anisotropy =    18.4553

     25  H    Isotropic =    32.7210   Anisotropy =    11.6821

     26  H    Isotropic =    32.4744   Anisotropy =    10.0310

     27  H    Isotropic =    32.6234   Anisotropy =    13.1491

     28  H    Isotropic =    32.4771   Anisotropy =    14.3279

     29  H    Isotropic =    32.7811   Anisotropy =     8.7221

     30  H    Isotropic =    32.7926   Anisotropy =     9.7851

     31  H    Isotropic =    32.6022   Anisotropy =    14.7710

 The electronic state is 1-A.
 Alpha  occ. eigenvalues --  -20.23365 -11.08398 -11.04995 -11.04349 -11.03964
 Alpha  occ. eigenvalues --  -11.03576 -11.03445 -11.03302 -11.03212 -11.03039
 Alpha  occ. eigenvalues --  -11.02693  -1.27485  -1.07786  -1.03596  -0.96729
 Alpha  occ. eigenvalues --   -0.94831  -0.89435  -0.87845  -0.79851  -0.77476
 Alpha  occ. eigenvalues --   -0.73495  -0.68950  -0.61991  -0.61174  -0.59863
 Alpha  occ. eigenvalues --   -0.56777  -0.56343  -0.55237  -0.52592  -0.52405
 Alpha  occ. eigenvalues --   -0.50276  -0.50198  -0.48816  -0.47747  -0.46929
 Alpha  occ. eigenvalues --   -0.45852  -0.45074  -0.42751  -0.42247  -0.40781
 Alpha  occ. eigenvalues --   -0.39049  -0.38610  -0.36279  -0.32979
 Alpha virt. eigenvalues --    0.52898   0.56514   0.56785   0.59430   0.60214
 Alpha virt. eigenvalues --    0.61816   0.62650   0.64028   0.64701   0.66484
 Alpha virt. eigenvalues --    0.68789   0.70211   0.70872   0.71593   0.72374

 Mulliken atomic charges:
              1
     1  C   -0.171910
     2  C   -0.022432
     3  C    0.075100
     4  C   -0.101923
     5  C   -0.040674
     6  C   -0.101765
     7  C   -0.105308
     8  O   -0.314178
     9  C   -0.020970
    10  C   -0.172176
    11  C   -0.176816
    12  H    0.050800
    13  H    0.053892
    14  H    0.053407
    15  H    0.057139
    16  H    0.040643
    17  H    0.050494
    18  H    0.053112
    19  H    0.042141
    20  H    0.048152
    21  H    0.048924
    22  H    0.051472
    23  H    0.059833
    24  H    0.173140
    25  H    0.045874
    26  H    0.053489
    27  H    0.051199
    28  H    0.053701
    29  H    0.055988
    30  H    0.054885
    31  H    0.054767
 Sum of Mulliken atomic charges =   0.00000

 Dipole moment (field-independent basis, Debye):
    X=             -1.3085    Y=             -0.1940    Z=             -0.2981  Tot=              1.3560
 Quadrupole moment (field-independent basis, Debye-Ang):
   XX=            -69.0281   YY=            -67.4380   ZZ=            -67.1164
   XY=             -3.3856   XZ=             -0.0073   YZ=             -0.3074

 Summary of Natural Population Analysis:

                                       Natural Population
                Natural  -----------------------------------------------
    Atom  No    Charge         Core      Valence    Rydberg      Total
 -----------------------------------------------------------------------
      C    1   -0.12672      1.99997     4.12675    0.00000     6.12672
      C    2    0.01473      1.99997     3.98530    0.00000     5.98527
      C    3    0.14421      1.99989     3.85590    0.00000     5.85579
      C    4   -0.06451      1.99995     4.06456    0.00000     6.06451
      C    5   -0.01942      1.99995     4.01947    0.00000     6.01942
      C    6   -0.06516      1.99996     4.06520    0.00000     6.06516
      C    7   -0.08147      1.99995     4.08152    0.00000     6.08147
      O    8   -0.33564      1.99999     6.33564    0.00000     8.33564
      C    9    0.02052      1.99996     3.97952    0.00000     5.97948
      C   10   -0.12731      1.99997     4.12734    0.00000     6.12731
      C   11   -0.13353      1.99997     4.13356    0.00000     6.13353
      H   12    0.03366      0.00000     0.96634    0.00000     0.96634
      H   13    0.03658      0.00000     0.96342    0.00000     0.96342
      H   14    0.03620      0.00000     0.96380    0.00000     0.96380
      H   15    0.03213      0.00000     0.96787    0.00000     0.96787
      H   16    0.00488      0.00000     0.99512    0.00000     0.99512
      H   17    0.02950      0.00000     0.97050    0.00000     0.97050
      H   18    0.03191      0.00000     0.96809    0.00000     0.96809
      H   19    0.01790      0.00000     0.98210    0.00000     0.98210
      H   20    0.02698      0.00000     0.97302    0.00000     0.97302
      H   21    0.02878      0.00000     0.97122    0.00000     0.97122
      H   22    0.03093      0.00000     0.96907    0.00000     0.96907
      H   23    0.03902      0.00000     0.96098    0.00000     0.96098
      H   24    0.18538      0.00000     0.81462    0.00000     0.81462
      H   25    0.02066      0.00000     0.97934    0.00000     0.97934
      H   26    0.03569      0.00000     0.96431    0.00000     0.96431
      H   27    0.03373      0.00000     0.96627    0.00000     0.96627
      H   28    0.03623      0.00000     0.96377    0.00000     0.96377
      H   29    0.03884      0.00000     0.96116    0.00000     0.96116
      H   30    0.03718      0.00000     0.96282    0.00000     0.96282
      H   31    0.03809      0.00000     0.96191    0.00000     0.96191
 =======================================================================
   * Total *    0.00000     21.99954    66.00046    0.00000    88.00000

 Normal termination of Gaussian 09 at Tue Aug  3 16:36:50 2021.
