 Gaussian 09, Revision C.01,
 Gaussian 09:  EM64L-G09RevC.01 23-Sep-2011

 ------------------------
 # rhf/STO-3G nmr pop=nbo
 ------------------------

 99/9=1/99;
 -------
 comment
 -------
 Charge =  0 Multiplicity = 1

                         Standard orientation:
 ---------------------------------------------------------------------
 Center     Atomic      Atomic             Coordinates (Angstroms)
 Number     Number       Type             X           Y           Z
 ---------------------------------------------------------------------
      1          6           0       -3.680486   -0.383703   -0.022083
      2          6           0       -2.182949   -0.340206   -0.317865
      3          6           0       -0.134153    1.111065    0.244228
      4          6           0        0.066610   -1.410986    0.157721
      5          6           0        0.636386   -0.074476   -0.366821
      6          6           0       -1.417903   -1.352036    0.534577
      7          6           0       -1.626281    1.078334   -0.119595
      8          8           0        0.410789    2.357222   -0.179202
      9          6           0        2.182586    0.042065   -0.227368
     10          6           0        2.902439   -1.122644   -0.916269
     11          6           0        2.671353    0.171010    1.218267
     12          1           0       -3.886817   -0.141846    1.026059
     13          1           0       -4.220651    0.333120   -0.649466
     14          1           0       -4.087107   -1.380110   -0.224700
     15          1           0       -2.048474   -0.615694   -1.372812
     16          1           0       -0.043833    1.080609    1.336479
     17          1           0        0.620900   -1.769961    1.031206
     18          1           0        0.202266   -2.173161   -0.620443
     19          1           0        0.442030   -0.045374   -1.450257
     20          1           0       -1.509426   -1.080468    1.594528
     21          1           0       -1.853398   -2.353444    0.433924
     22          1           0       -2.176138    1.604709    0.672018
     23          1           0       -1.814515    1.662744   -1.029968
     24          1           0        0.383531    2.378914   -1.151049
     25          1           0        2.493744    0.954648   -0.753264
     26          1           0        2.725506   -2.072342   -0.401287
     27          1           0        2.569715   -1.227483   -1.954218
     28          1           0        3.984296   -0.950855   -0.930846
     29          1           0        2.415809   -0.706964    1.818469
     30          1           0        2.249242    1.054176    1.706543
     31          1           0        3.761394    0.280466    1.243949
 ---------------------------------------------------------------------

 SCF Done:  E(RHF) =  -459.613908924     A.U. after   10 cycles

      1  C    Isotropic =   221.2096   Anisotropy =    27.7323

      2  C    Isotropic =   216.8003   Anisotropy =     9.9085

      3  C    Isotropic =   189.8366   Anisotropy =    42.0952

      4  C    Isotropic =   219.7196   Anisotropy =    16.1402

      5  C    Isotropic =   210.1630   Anisotropy =    15.3474

      6  C    Isotropic =   217.5309   Anisotropy =    17.4510

      7  C    Isotropic =   213.4038   Anisotropy =    26.7899

      8  O    Isotropic =   349.7343   Anisotropy =    88.3135

      9  C    Isotropic =   214.7038   Anisotropy =    13.6641

     10  C    Isotropic =   221.6311   Anisotropy =    25.2595

     11  C    Isotropic =   224.7277   Anisotropy =    20.5228

     12  H    Isotropic =    32.6750   Anisotropy =    11.7709

     13  H    Isotropic =    32.4050   Anisotropy =    13.6196

     14  H    Isotropic =    32.5224   Anisotropy =    13.9155

     15  H    Isotropic =    32.7440   Anisotropy =    10.4083

     16  H    Isotropic =    31.5124   Anisotropy =     7.5427

     17  H    Isotropic =    32.5715   Anisotropy =    11.2131

     18  H    Isotropic =    32.4619   Anisotropy =    12.4139

     19  H    Isotropic =    33.0425   Anisotropy =     8.2981

     20  H    Isotropic =    32.7933   Anisotropy =    10.9427

     21  H    Isotropic =    32.5131   Anisotropy =    13.9301

     22  H    Isotropic =    32.0741   Anisotropy =    12.2143

     23  H    Isotropic =    32.6580   Anisotropy =    11.8373

     24  H    Isotropic =    35.4031   Anisotropy =    15.2769

     25  H    Isotropic =    32.1991   Anisotropy =    11.4579

     26  H    Isotropic =    32.5939   Anisotropy =     9.7926

     27  H    Isotropic =    32.6349   Anisotropy =    12.3877

     28  H    Isotropic =    32.4537   Anisotropy =    14.7335

     29  H    Isotropic =    32.7371   Anisotropy =    10.2672

     30  H    Isotropic =    32.2341   Anisotropy =    10.7550

     31  H    Isotropic =    32.5465   Anisotropy =    14.8561

 The electronic state is 1-A.
 Alpha  occ. eigenvalues --  -20.23945 -11.08472 -11.04827 -11.04619 -11.04283
 Alpha  occ. eigenvalues --  -11.03777 -11.03677 -11.03563 -11.03325 -11.03041
 Alpha  occ. eigenvalues --  -11.02645  -1.27958  -1.08323  -1.03779  -0.96814
 Alpha  occ. eigenvalues --   -0.94653  -0.88787  -0.87993  -0.80099  -0.79074
 Alpha  occ. eigenvalues --   -0.73609  -0.68507  -0.63104  -0.60814  -0.58834
 Alpha  occ. eigenvalues --   -0.57998  -0.54909  -0.53849  -0.53685  -0.52604
 Alpha  occ. eigenvalues --   -0.51968  -0.50348  -0.48821  -0.48005  -0.46990
 Alpha  occ. eigenvalues --   -0.45951  -0.44297  -0.42948  -0.42629  -0.42098
 Alpha  occ. eigenvalues --   -0.39744  -0.38860  -0.36039  -0.32614
 Alpha virt. eigenvalues --    0.53796   0.54701   0.57275   0.60118   0.60853
 Alpha virt. eigenvalues --    0.61451   0.62130   0.63725   0.65061   0.65907
 Alpha virt. eigenvalues --    0.67970   0.69813   0.70158   0.71200   0.71632

 Mulliken atomic charges:
              1
     1  C   -0.171129
     2  C   -0.024143
     3  C    0.075201
     4  C   -0.104183
     5  C   -0.041023
     6  C   -0.100912
     7  C   -0.113311
     8  O   -0.310617
     9  C   -0.018598
    10  C   -0.173511
    11  C   -0.175915
    12  H    0.053955
    13  H    0.054285
    14  H    0.053916
    15  H    0.045319
    16  H    0.058496
    17  H    0.051425
    18  H    0.049489
    19  H    0.037175
    20  H    0.047171
    21  H    0.051904
    22  H    0.054620
    23  H    0.047277
    24  H    0.175634
    25  H    0.051991
    26  H    0.054175
    27  H    0.050983
    28  H    0.054666
    29  H    0.050841
    30  H    0.060561
    31  H    0.054259
 Sum of Mulliken atomic charges =   0.00000

 Dipole moment (field-independent basis, Debye):
    X=             -0.4934    Y=             -1.0712    Z=             -0.8876  Tot=              1.4761
 Quadrupole moment (field-independent basis, Debye-Ang):
   XX=            -68.3971   YY=            -71.9491   ZZ=            -65.3440
   XY=             -1.0263   XZ=             -0.3873   YZ=             -2.4372

 Summary of Natural Population Analysis:

                                       Natural Population
                Natural  -----------------------------------------------
    Atom  No    Charge         Core      Valence    Rydberg      Total
 -----------------------------------------------------------------------
      C    1   -0.12623      1.99997     4.12626    0.00000     6.12623
      C    2    0.01395      1.99997     3.98608    0.00000     5.98605
      C    3    0.14081      1.99989     3.85929    0.00000     5.85919
      C    4   -0.06591      1.99995     4.06596    0.00000     6.06591
      C    5   -0.02019      1.99996     4.02024    0.00000     6.02019
      C    6   -0.06364      1.99996     4.06368    0.00000     6.06364
      C    7   -0.08931      1.99996     4.08935    0.00000     6.08931
      O    8   -0.33089      1.99999     6.33089    0.00000     8.33089
      C    9    0.02202      1.99996     3.97802    0.00000     5.97798
      C   10   -0.12927      1.99997     4.12930    0.00000     6.12927
      C   11   -0.13231      1.99997     4.13234    0.00000     6.13231
      H   12    0.03659      0.00000     0.96341    0.00000     0.96341
      H   13    0.03699      0.00000     0.96301    0.00000     0.96301
      H   14    0.03660      0.00000     0.96340    0.00000     0.96340
      H   15    0.02145      0.00000     0.97855    0.00000     0.97855
      H   16    0.02336      0.00000     0.97664    0.00000     0.97664
      H   17    0.03004      0.00000     0.96996    0.00000     0.96996
      H   18    0.02851      0.00000     0.97149    0.00000     0.97149
      H   19    0.01294      0.00000     0.98706    0.00000     0.98706
      H   20    0.02648      0.00000     0.97352    0.00000     0.97352
      H   21    0.03132      0.00000     0.96868    0.00000     0.96868
      H   22    0.03354      0.00000     0.96646    0.00000     0.96646
      H   23    0.02742      0.00000     0.97258    0.00000     0.97258
      H   24    0.18798      0.00000     0.81202    0.00000     0.81202
      H   25    0.02633      0.00000     0.97367    0.00000     0.97367
      H   26    0.03657      0.00000     0.96343    0.00000     0.96343
      H   27    0.03382      0.00000     0.96618    0.00000     0.96618
      H   28    0.03739      0.00000     0.96261    0.00000     0.96261
      H   29    0.03370      0.00000     0.96630    0.00000     0.96630
      H   30    0.04255      0.00000     0.95745    0.00000     0.95745
      H   31    0.03740      0.00000     0.96260    0.00000     0.96260
 =======================================================================
   * Total *    0.00000     21.99956    66.00044    0.00000    88.00000

 Normal termination of Gaussian 09 at Tue Aug  3 16:36:13 2021.
