 Gaussian 09, Revision C.01,
 Gaussian 09:  EM64L-G09RevC.01 23-Sep-2011

 ------------------------
 # rhf/STO-3G nmr pop=nbo
 ------------------------

 99/9=1/99;
 -------
 comment
 -------
 Charge =  0 Multiplicity = 1

                         Standard orientation:
 ---------------------------------------------------------------------
 Center     Atomic      Atomic             Coordinates (Angstroms)
 Number     Number       Type             X           Y           Z
 ---------------------------------------------------------------------
      1          6           0       -3.720533   -0.146700   -0.283103
      2          6           0       -2.199122   -0.214293   -0.395657
      3          6           0       -0.096730    1.025048    0.445720
      4          6           0       -0.123728   -1.498935    0.240237
      5          6           0        0.639109   -0.201925   -0.139590
      6          6           0       -1.626782   -1.331995    0.465615
      7          6           0       -1.562117    1.126178   -0.015169
      8          8           0        0.527326    2.255536    0.095591
      9          6           0        2.147757   -0.332423    0.262271
     10          6           0        3.007680    0.879066   -0.113671
     11          6           0        2.791094   -1.578642   -0.370642
     12          1           0       -4.036530    0.040564    0.748788
     13          1           0       -4.120635    0.655430   -0.912172
     14          1           0       -4.175555   -1.087798   -0.609504
     15          1           0       -1.954814   -0.428100   -1.445035
     16          1           0       -0.071936    0.958665    1.540322
     17          1           0        0.299575   -1.944671    1.149196
     18          1           0        0.026619   -2.233430   -0.561594
     19          1           0        0.613214   -0.100730   -1.234631
     20          1           0       -1.811346   -1.111961    1.525407
     21          1           0       -2.129584   -2.283793    0.256103
     22          1           0       -2.131073    1.606190    0.792688
     23          1           0       -1.654506    1.811415   -0.868524
     24          1           0        0.572649    2.301132   -0.874812
     25          1           0        2.205718   -0.449132    1.352622
     26          1           0        4.074195    0.659804    0.011276
     27          1           0        2.847185    1.174252   -1.155691
     28          1           0        2.798976    1.733871    0.535022
     29          1           0        2.710453   -1.551262   -1.462641
     30          1           0        2.325206   -2.502420   -0.015506
     31          1           0        3.853813   -1.644578   -0.112091
 ---------------------------------------------------------------------

 SCF Done:  E(RHF) =  -459.609816220     A.U. after   10 cycles

      1  C    Isotropic =   221.2241   Anisotropy =    27.8784

      2  C    Isotropic =   217.1433   Anisotropy =     9.3707

      3  C    Isotropic =   188.4517   Anisotropy =    39.4991

      4  C    Isotropic =   216.5845   Anisotropy =    18.4031

      5  C    Isotropic =   208.8253   Anisotropy =    13.7917

      6  C    Isotropic =   217.6764   Anisotropy =    16.7606

      7  C    Isotropic =   212.9501   Anisotropy =    28.1530

      8  O    Isotropic =   344.6410   Anisotropy =    86.7974

      9  C    Isotropic =   211.1709   Anisotropy =    18.5051

     10  C    Isotropic =   221.2007   Anisotropy =    24.5606

     11  C    Isotropic =   220.6151   Anisotropy =    26.0757

     12  H    Isotropic =    32.6844   Anisotropy =    11.9179

     13  H    Isotropic =    32.4197   Anisotropy =    13.5332

     14  H    Isotropic =    32.5187   Anisotropy =    13.8869

     15  H    Isotropic =    32.8303   Anisotropy =    10.1544

     16  H    Isotropic =    31.4940   Anisotropy =     8.6942

     17  H    Isotropic =    32.5446   Anisotropy =    11.3396

     18  H    Isotropic =    32.2653   Anisotropy =    11.6263

     19  H    Isotropic =    33.3191   Anisotropy =     7.1779

     20  H    Isotropic =    32.7874   Anisotropy =    11.3818

     21  H    Isotropic =    32.5039   Anisotropy =    13.8942

     22  H    Isotropic =    32.0092   Anisotropy =    12.1329

     23  H    Isotropic =    32.6251   Anisotropy =    11.5444

     24  H    Isotropic =    35.4544   Anisotropy =    13.6444

     25  H    Isotropic =    32.5595   Anisotropy =    10.3879

     26  H    Isotropic =    32.5691   Anisotropy =    14.2766

     27  H    Isotropic =    32.8400   Anisotropy =    10.0817

     28  H    Isotropic =    31.6618   Anisotropy =    10.5946

     29  H    Isotropic =    32.6687   Anisotropy =    10.8613

     30  H    Isotropic =    32.3729   Anisotropy =    10.6952

     31  H    Isotropic =    32.5266   Anisotropy =    14.3217

 The electronic state is 1-A.
 Alpha  occ. eigenvalues --  -20.23850 -11.08615 -11.04795 -11.04649 -11.04476
 Alpha  occ. eigenvalues --  -11.03753 -11.03692 -11.03555 -11.03312 -11.02902
 Alpha  occ. eigenvalues --  -11.02333  -1.27977  -1.08263  -1.03708  -0.96914
 Alpha  occ. eigenvalues --   -0.94573  -0.88401  -0.88042  -0.79511  -0.78603
 Alpha  occ. eigenvalues --   -0.74154  -0.69716  -0.62707  -0.61043  -0.58387
 Alpha  occ. eigenvalues --   -0.56834  -0.55285  -0.54079  -0.53455  -0.52864
 Alpha  occ. eigenvalues --   -0.51555  -0.50120  -0.49790  -0.46914  -0.46793
 Alpha  occ. eigenvalues --   -0.45780  -0.44446  -0.43118  -0.42407  -0.42160
 Alpha  occ. eigenvalues --   -0.39929  -0.39243  -0.35919  -0.32133
 Alpha virt. eigenvalues --    0.52900   0.54458   0.56499   0.60795   0.61346
 Alpha virt. eigenvalues --    0.61593   0.62085   0.63919   0.65274   0.66103
 Alpha virt. eigenvalues --    0.67235   0.69367   0.70339   0.71822   0.72311

 Mulliken atomic charges:
              1
     1  C   -0.171158
     2  C   -0.024379
     3  C    0.074886
     4  C   -0.102401
     5  C   -0.040386
     6  C   -0.101494
     7  C   -0.112510
     8  O   -0.310145
     9  C   -0.017882
    10  C   -0.175935
    11  C   -0.173500
    12  H    0.053934
    13  H    0.054062
    14  H    0.053871
    15  H    0.045112
    16  H    0.057517
    17  H    0.050161
    18  H    0.050024
    19  H    0.037324
    20  H    0.047201
    21  H    0.051904
    22  H    0.054780
    23  H    0.048276
    24  H    0.176764
    25  H    0.046414
    26  H    0.051608
    27  H    0.046464
    28  H    0.070292
    29  H    0.050702
    30  H    0.054078
    31  H    0.054414
 Sum of Mulliken atomic charges =   0.00000

 Dipole moment (field-independent basis, Debye):
    X=             -0.5170    Y=             -1.0393    Z=             -0.8556  Tot=              1.4421
 Quadrupole moment (field-independent basis, Debye-Ang):
   XX=            -68.7029   YY=            -71.7358   ZZ=            -65.5140
   XY=             -1.1436   XZ=             -0.4727   YZ=             -2.6274

 Summary of Natural Population Analysis:

                                       Natural Population
                Natural  -----------------------------------------------
    Atom  No    Charge         Core      Valence    Rydberg      Total
 -----------------------------------------------------------------------
      C    1   -0.12594      1.99997     4.12597    0.00000     6.12594
      C    2    0.01277      1.99997     3.98726    0.00000     5.98723
      C    3    0.14097      1.99990     3.85914    0.00000     5.85903
      C    4   -0.06393      1.99995     4.06398    0.00000     6.06393
      C    5   -0.01742      1.99995     4.01747    0.00000     6.01742
      C    6   -0.06551      1.99997     4.06554    0.00000     6.06551
      C    7   -0.08861      1.99996     4.08865    0.00000     6.08861
      O    8   -0.33090      1.99999     6.33091    0.00000     8.33090
      C    9    0.02476      1.99996     3.97528    0.00000     5.97524
      C   10   -0.13315      1.99997     4.13319    0.00000     6.13315
      C   11   -0.12917      1.99997     4.12921    0.00000     6.12917
      H   12    0.03659      0.00000     0.96341    0.00000     0.96341
      H   13    0.03677      0.00000     0.96323    0.00000     0.96323
      H   14    0.03657      0.00000     0.96343    0.00000     0.96343
      H   15    0.02162      0.00000     0.97838    0.00000     0.97838
      H   16    0.02215      0.00000     0.97785    0.00000     0.97785
      H   17    0.02891      0.00000     0.97109    0.00000     0.97109
      H   18    0.02882      0.00000     0.97118    0.00000     0.97118
      H   19    0.01218      0.00000     0.98782    0.00000     0.98782
      H   20    0.02687      0.00000     0.97313    0.00000     0.97313
      H   21    0.03166      0.00000     0.96834    0.00000     0.96834
      H   22    0.03380      0.00000     0.96620    0.00000     0.96620
      H   23    0.02834      0.00000     0.97166    0.00000     0.97166
      H   24    0.18907      0.00000     0.81093    0.00000     0.81093
      H   25    0.02044      0.00000     0.97956    0.00000     0.97956
      H   26    0.03471      0.00000     0.96529    0.00000     0.96529
      H   27    0.03011      0.00000     0.96989    0.00000     0.96989
      H   28    0.05110      0.00000     0.94890    0.00000     0.94890
      H   29    0.03335      0.00000     0.96665    0.00000     0.96665
      H   30    0.03610      0.00000     0.96390    0.00000     0.96390
      H   31    0.03699      0.00000     0.96301    0.00000     0.96301
 =======================================================================
   * Total *    0.00000     21.99956    66.00044    0.00000    88.00000

 Normal termination of Gaussian 09 at Tue Aug  3 16:38:48 2021.
