 Gaussian 09, Revision C.01,
 Gaussian 09:  EM64L-G09RevC.01 23-Sep-2011

 ------------------------
 # rhf/STO-3G nmr pop=nbo
 ------------------------

 99/9=1/99;
 -------
 comment
 -------
 Charge =  0 Multiplicity = 1

                         Standard orientation:
 ---------------------------------------------------------------------
 Center     Atomic      Atomic             Coordinates (Angstroms)
 Number     Number       Type             X           Y           Z
 ---------------------------------------------------------------------
      1          6           0        3.030103   -0.991139   -0.990650
      2          6           0        2.006951   -0.315138   -0.079094
      3          6           0        0.096215    1.370572   -0.003521
      4          6           0       -0.004814   -0.701955    1.412900
      5          6           0       -0.851272    0.312178    0.608907
      6          6           0        1.086056   -1.358232    0.567510
      7          6           0        1.202440    0.739707   -0.856126
      8          8           0        0.693493    2.114988    1.063079
      9          6           0       -1.782182   -0.365451   -0.446991
     10          6           0       -2.642162    0.660465   -1.198124
     11          6           0       -2.717797   -1.403468    0.188023
     12          1           0        3.630241   -1.715755   -0.430312
     13          1           0        2.540692   -1.521667   -1.814471
     14          1           0        3.713577   -0.252278   -1.422082
     15          1           0        2.560945    0.193539    0.721175
     16          1           0       -0.460969    2.098326   -0.599262
     17          1           0       -0.633445   -1.472037    1.870049
     18          1           0        0.470983   -0.183100    2.255662
     19          1           0       -1.495018    0.823442    1.339069
     20          1           0        0.629151   -1.990670   -0.202917
     21          1           0        1.678734   -2.025663    1.205028
     22          1           0        0.764345    0.290044   -1.755065
     23          1           0        1.891182    1.523608   -1.195738
     24          1           0        1.276589    2.782763    0.663551
     25          1           0       -1.174867   -0.889486   -1.194052
     26          1           0       -3.200975    1.294802   -0.501980
     27          1           0       -2.032658    1.303129   -1.839674
     28          1           0       -3.364636    0.161201   -1.853369
     29          1           0       -3.285023   -0.970400    1.018666
     30          1           0       -2.162986   -2.269157    0.560901
     31          1           0       -3.435033   -1.785786   -0.546809
 ---------------------------------------------------------------------

 SCF Done:  E(RHF) =  -459.619700525     A.U. after   10 cycles

      1  C    Isotropic =   221.0259   Anisotropy =    28.2059

      2  C    Isotropic =   215.8460   Anisotropy =     8.0530

      3  C    Isotropic =   189.2688   Anisotropy =    40.3600

      4  C    Isotropic =   218.8344   Anisotropy =    13.6978

      5  C    Isotropic =   210.0999   Anisotropy =    17.0497

      6  C    Isotropic =   217.8236   Anisotropy =    18.0446

      7  C    Isotropic =   215.3934   Anisotropy =    18.4015

      8  O    Isotropic =   353.2032   Anisotropy =    95.0242

      9  C    Isotropic =   215.0123   Anisotropy =    14.3794

     10  C    Isotropic =   221.4758   Anisotropy =    25.5577

     11  C    Isotropic =   221.4017   Anisotropy =    25.7942

     12  H    Isotropic =    32.4101   Anisotropy =    14.0639

     13  H    Isotropic =    32.7297   Anisotropy =    11.0281

     14  H    Isotropic =    32.5207   Anisotropy =    13.7978

     15  H    Isotropic =    32.3906   Anisotropy =    11.2922

     16  H    Isotropic =    31.8674   Anisotropy =     9.9518

     17  H    Isotropic =    32.3596   Anisotropy =    13.0118

     18  H    Isotropic =    32.0009   Anisotropy =    12.8744

     19  H    Isotropic =    32.1952   Anisotropy =    11.7414

     20  H    Isotropic =    32.8496   Anisotropy =     9.0673

     21  H    Isotropic =    32.4540   Anisotropy =    14.6532

     22  H    Isotropic =    32.7347   Anisotropy =     8.8739

     23  H    Isotropic =    32.9132   Anisotropy =    13.2657

     24  H    Isotropic =    35.0868   Anisotropy =    19.3531

     25  H    Isotropic =    32.7494   Anisotropy =     8.3727

     26  H    Isotropic =    32.5830   Anisotropy =    11.9569

     27  H    Isotropic =    32.5362   Anisotropy =    10.5073

     28  H    Isotropic =    32.5688   Anisotropy =    14.1252

     29  H    Isotropic =    32.5702   Anisotropy =    12.1448

     30  H    Isotropic =    32.3121   Anisotropy =    10.6823

     31  H    Isotropic =    32.5447   Anisotropy =    14.1493

 The electronic state is 1-A.
 Alpha  occ. eigenvalues --  -20.23446 -11.08332 -11.04810 -11.04369 -11.04258
 Alpha  occ. eigenvalues --  -11.03767 -11.03157 -11.03080 -11.03053 -11.03006
 Alpha  occ. eigenvalues --  -11.02863  -1.27584  -1.07846  -1.03420  -0.96705
 Alpha  occ. eigenvalues --   -0.94841  -0.88781  -0.87815  -0.79094  -0.77737
 Alpha  occ. eigenvalues --   -0.74702  -0.67996  -0.63334  -0.59690  -0.58500
 Alpha  occ. eigenvalues --   -0.57409  -0.56619  -0.54749  -0.54029  -0.51844
 Alpha  occ. eigenvalues --   -0.51025  -0.50072  -0.49812  -0.47617  -0.47046
 Alpha  occ. eigenvalues --   -0.45601  -0.43622  -0.42549  -0.42427  -0.40468
 Alpha  occ. eigenvalues --   -0.39351  -0.38588  -0.36189  -0.33214
 Alpha virt. eigenvalues --    0.52077   0.56289   0.59064   0.59707   0.61437
 Alpha virt. eigenvalues --    0.61954   0.62856   0.62933   0.65175   0.66995
 Alpha virt. eigenvalues --    0.69805   0.70196   0.70696   0.71366   0.72320

 Mulliken atomic charges:
              1
     1  C   -0.172299
     2  C   -0.022598
     3  C    0.074427
     4  C   -0.102575
     5  C   -0.032249
     6  C   -0.100802
     7  C   -0.113904
     8  O   -0.314956
     9  C   -0.022128
    10  C   -0.173845
    11  C   -0.172867
    12  H    0.054499
    13  H    0.051862
    14  H    0.052155
    15  H    0.052295
    16  H    0.042948
    17  H    0.050909
    18  H    0.059219
    19  H    0.054627
    20  H    0.045046
    21  H    0.049561
    22  H    0.051254
    23  H    0.044367
    24  H    0.174762
    25  H    0.046870
    26  H    0.054338
    27  H    0.052030
    28  H    0.054191
    29  H    0.053980
    30  H    0.054862
    31  H    0.054020
 Sum of Mulliken atomic charges =   0.00000

 Dipole moment (field-independent basis, Debye):
    X=              0.2181    Y=              0.0782    Z=             -1.2444  Tot=              1.2658
 Quadrupole moment (field-independent basis, Debye-Ang):
   XX=            -66.8277   YY=            -66.1995   ZZ=            -69.6996
   XY=              1.8035   XZ=             -0.3266   YZ=             -2.5274

 Summary of Natural Population Analysis:

                                       Natural Population
                Natural  -----------------------------------------------
    Atom  No    Charge         Core      Valence    Rydberg      Total
 -----------------------------------------------------------------------
      C    1   -0.12754      1.99997     4.12757    0.00000     6.12754
      C    2    0.01545      1.99997     3.98458    0.00000     5.98455
      C    3    0.14270      1.99988     3.85742    0.00000     5.85730
      C    4   -0.06607      1.99995     4.06611    0.00000     6.06607
      C    5   -0.00909      1.99995     4.00915    0.00000     6.00909
      C    6   -0.06341      1.99996     4.06344    0.00000     6.06341
      C    7   -0.08958      1.99996     4.08962    0.00000     6.08958
      O    8   -0.33631      1.99999     6.33632    0.00000     8.33631
      C    9    0.01969      1.99996     3.98036    0.00000     5.98031
      C   10   -0.12953      1.99997     4.12956    0.00000     6.12953
      C   11   -0.12858      1.99997     4.12861    0.00000     6.12858
      H   12    0.03723      0.00000     0.96277    0.00000     0.96277
      H   13    0.03467      0.00000     0.96533    0.00000     0.96533
      H   14    0.03502      0.00000     0.96498    0.00000     0.96498
      H   15    0.02746      0.00000     0.97254    0.00000     0.97254
      H   16    0.00651      0.00000     0.99349    0.00000     0.99349
      H   17    0.02953      0.00000     0.97047    0.00000     0.97047
      H   18    0.03728      0.00000     0.96272    0.00000     0.96272
      H   19    0.02828      0.00000     0.97172    0.00000     0.97172
      H   20    0.02438      0.00000     0.97562    0.00000     0.97562
      H   21    0.02908      0.00000     0.97092    0.00000     0.97092
      H   22    0.03106      0.00000     0.96894    0.00000     0.96894
      H   23    0.02472      0.00000     0.97528    0.00000     0.97528
      H   24    0.18723      0.00000     0.81277    0.00000     0.81277
      H   25    0.02115      0.00000     0.97885    0.00000     0.97885
      H   26    0.03681      0.00000     0.96319    0.00000     0.96319
      H   27    0.03458      0.00000     0.96542    0.00000     0.96542
      H   28    0.03692      0.00000     0.96308    0.00000     0.96308
      H   29    0.03647      0.00000     0.96353    0.00000     0.96353
      H   30    0.03715      0.00000     0.96285    0.00000     0.96285
      H   31    0.03676      0.00000     0.96324    0.00000     0.96324
 =======================================================================
   * Total *    0.00000     21.99953    66.00047    0.00000    88.00000

 Normal termination of Gaussian 09 at Tue Aug  3 16:36:33 2021.
