 Gaussian 09, Revision C.01,
 Gaussian 09:  EM64L-G09RevC.01 23-Sep-2011

 ------------------------
 # rhf/STO-3G nmr pop=nbo
 ------------------------

 99/9=1/99;
 -------
 comment
 -------
 Charge =  0 Multiplicity = 1

                         Standard orientation:
 ---------------------------------------------------------------------
 Center     Atomic      Atomic             Coordinates (Angstroms)
 Number     Number       Type             X           Y           Z
 ---------------------------------------------------------------------
      1          6           0       -2.821766   -0.285512    1.184448
      2          6           0       -2.403917    0.141022   -0.225057
      3          6           0       -0.015805    0.924590    0.277329
      4          6           0       -0.420084   -1.432580   -0.550061
      5          6           0        0.564901   -0.244630   -0.549040
      6          6           0       -1.815130   -1.026825   -1.024191
      7          6           0       -1.421311    1.315226   -0.195409
      8          8           0        0.810438    2.080742    0.182184
      9          6           0        1.988761   -0.721425   -0.126192
     10          6           0        2.127321   -1.030709    1.366944
     11          6           0        3.092147    0.253240   -0.552031
     12          1           0       -3.283717    0.552285    1.717694
     13          1           0       -3.558019   -1.095077    1.138191
     14          1           0       -1.976850   -0.636696    1.783712
     15          1           0       -3.314547    0.475692   -0.738918
     16          1           0       -0.061508    0.653570    1.336849
     17          1           0       -0.492777   -1.872991    0.450133
     18          1           0       -0.043460   -2.222781   -1.211138
     19          1           0        0.651939    0.098675   -1.590580
     20          1           0       -2.484908   -1.893725   -0.977085
     21          1           0       -1.755940   -0.737997   -2.081641
     22          1           0       -1.809458    2.125422    0.435091
     23          1           0       -1.350876    1.746975   -1.203418
     24          1           0        0.878065    2.323463   -0.757048
     25          1           0        2.188180   -1.656060   -0.668757
     26          1           0        2.030485   -0.128214    1.978707
     27          1           0        1.378525   -1.754168    1.701030
     28          1           0        3.112520   -1.462469    1.576169
     29          1           0        3.097560    1.163544    0.053627
     30          1           0        2.984633    0.535836   -1.604181
     31          1           0        4.075953   -0.215598   -0.436352
 ---------------------------------------------------------------------

 SCF Done:  E(RHF) =  -459.619798341     A.U. after   10 cycles

      1  C    Isotropic =   222.8988   Anisotropy =    24.5225

      2  C    Isotropic =   216.4070   Anisotropy =     4.3151

      3  C    Isotropic =   190.7750   Anisotropy =    42.5600

      4  C    Isotropic =   217.8878   Anisotropy =    19.8809

      5  C    Isotropic =   207.5003   Anisotropy =    11.0312

      6  C    Isotropic =   216.7788   Anisotropy =    11.0910

      7  C    Isotropic =   214.4193   Anisotropy =    18.1059

      8  O    Isotropic =   350.1860   Anisotropy =    87.2260

      9  C    Isotropic =   212.0927   Anisotropy =    18.7643

     10  C    Isotropic =   224.1765   Anisotropy =    20.3574

     11  C    Isotropic =   220.4658   Anisotropy =    27.3445

     12  H    Isotropic =    32.5374   Anisotropy =    14.1613

     13  H    Isotropic =    32.6102   Anisotropy =    14.4326

     14  H    Isotropic =    32.6237   Anisotropy =     7.9446

     15  H    Isotropic =    32.4386   Anisotropy =    15.3493

     16  H    Isotropic =    31.6390   Anisotropy =     6.2961

     17  H    Isotropic =    32.6614   Anisotropy =     8.9197

     18  H    Isotropic =    32.6030   Anisotropy =    13.5579

     19  H    Isotropic =    33.2650   Anisotropy =     8.8238

     20  H    Isotropic =    32.5207   Anisotropy =    14.6060

     21  H    Isotropic =    32.6253   Anisotropy =    13.1110

     22  H    Isotropic =    32.0546   Anisotropy =    13.5316

     23  H    Isotropic =    32.9657   Anisotropy =    11.6616

     24  H    Isotropic =    35.5215   Anisotropy =    14.8286

     25  H    Isotropic =    32.5471   Anisotropy =    11.8438

     26  H    Isotropic =    32.4293   Anisotropy =     9.4728

     27  H    Isotropic =    32.6029   Anisotropy =    10.8805

     28  H    Isotropic =    32.4896   Anisotropy =    14.8943

     29  H    Isotropic =    31.9997   Anisotropy =     9.1898

     30  H    Isotropic =    32.7298   Anisotropy =    11.9626

     31  H    Isotropic =    32.4073   Anisotropy =    14.9168

 The electronic state is 1-A.
 Alpha  occ. eigenvalues --  -20.23832 -11.08571 -11.04876 -11.04553 -11.04354
 Alpha  occ. eigenvalues --  -11.03828 -11.03789 -11.03713 -11.03246 -11.02789
 Alpha  occ. eigenvalues --  -11.02456  -1.27956  -1.08353  -1.03664  -0.96791
 Alpha  occ. eigenvalues --   -0.94593  -0.88631  -0.88465  -0.79644  -0.79312
 Alpha  occ. eigenvalues --   -0.72533  -0.70389  -0.62321  -0.59993  -0.58720
 Alpha  occ. eigenvalues --   -0.57473  -0.56318  -0.54852  -0.53314  -0.52447
 Alpha  occ. eigenvalues --   -0.51100  -0.50507  -0.49470  -0.48325  -0.46696
 Alpha  occ. eigenvalues --   -0.45674  -0.44262  -0.43125  -0.42133  -0.41488
 Alpha  occ. eigenvalues --   -0.40280  -0.39445  -0.35985  -0.32400
 Alpha virt. eigenvalues --    0.53650   0.54667   0.56839   0.60426   0.61233
 Alpha virt. eigenvalues --    0.61779   0.62872   0.65016   0.66506   0.66721
 Alpha virt. eigenvalues --    0.67664   0.68612   0.69783   0.70926   0.71958

 Mulliken atomic charges:
              1
     1  C   -0.174891
     2  C   -0.024469
     3  C    0.073823
     4  C   -0.102245
     5  C   -0.040190
     6  C   -0.100668
     7  C   -0.112036
     8  O   -0.311983
     9  C   -0.017835
    10  C   -0.175796
    11  C   -0.176228
    12  H    0.055070
    13  H    0.054191
    14  H    0.053231
    15  H    0.049775
    16  H    0.060675
    17  H    0.049408
    18  H    0.050808
    19  H    0.038596
    20  H    0.051188
    21  H    0.046431
    22  H    0.057409
    23  H    0.042200
    24  H    0.176619
    25  H    0.046480
    26  H    0.058941
    27  H    0.051469
    28  H    0.054575
    29  H    0.066851
    30  H    0.047070
    31  H    0.051530
 Sum of Mulliken atomic charges =   0.00000

 Dipole moment (field-independent basis, Debye):
    X=             -0.6819    Y=             -0.7359    Z=             -1.0919  Tot=              1.4829
 Quadrupole moment (field-independent basis, Debye-Ang):
   XX=            -68.4292   YY=            -69.6748   ZZ=            -66.7611
   XY=             -1.5351   XZ=             -1.0575   YZ=             -2.8055

 Summary of Natural Population Analysis:

                                       Natural Population
                Natural  -----------------------------------------------
    Atom  No    Charge         Core      Valence    Rydberg      Total
 -----------------------------------------------------------------------
      C    1   -0.13014      1.99997     4.13017    0.00000     6.13014
      C    2    0.01395      1.99997     3.98608    0.00000     5.98605
      C    3    0.13964      1.99989     3.86047    0.00000     5.86036
      C    4   -0.06429      1.99996     4.06433    0.00000     6.06429
      C    5   -0.01858      1.99996     4.01862    0.00000     6.01858
      C    6   -0.06341      1.99996     4.06345    0.00000     6.06341
      C    7   -0.08824      1.99996     4.08828    0.00000     6.08824
      O    8   -0.33248      1.99999     6.33249    0.00000     8.33248
      C    9    0.02321      1.99996     3.97683    0.00000     5.97679
      C   10   -0.13211      1.99997     4.13214    0.00000     6.13211
      C   11   -0.13256      1.99997     4.13259    0.00000     6.13256
      H   12    0.03781      0.00000     0.96219    0.00000     0.96219
      H   13    0.03702      0.00000     0.96298    0.00000     0.96298
      H   14    0.03588      0.00000     0.96412    0.00000     0.96412
      H   15    0.02561      0.00000     0.97439    0.00000     0.97439
      H   16    0.02525      0.00000     0.97475    0.00000     0.97475
      H   17    0.02803      0.00000     0.97197    0.00000     0.97197
      H   18    0.02992      0.00000     0.97008    0.00000     0.97008
      H   19    0.01408      0.00000     0.98592    0.00000     0.98592
      H   20    0.03050      0.00000     0.96950    0.00000     0.96950
      H   21    0.02586      0.00000     0.97414    0.00000     0.97414
      H   22    0.03634      0.00000     0.96366    0.00000     0.96366
      H   23    0.02251      0.00000     0.97749    0.00000     0.97749
      H   24    0.18895      0.00000     0.81105    0.00000     0.81105
      H   25    0.02118      0.00000     0.97882    0.00000     0.97882
      H   26    0.04114      0.00000     0.95886    0.00000     0.95886
      H   27    0.03429      0.00000     0.96571    0.00000     0.96571
      H   28    0.03767      0.00000     0.96233    0.00000     0.96233
      H   29    0.04788      0.00000     0.95212    0.00000     0.95212
      H   30    0.03047      0.00000     0.96953    0.00000     0.96953
      H   31    0.03463      0.00000     0.96537    0.00000     0.96537
 =======================================================================
   * Total *    0.00000     21.99956    66.00044    0.00000    88.00000

 Normal termination of Gaussian 09 at Sun May 24 02:08:19 2020.
