 Gaussian 09, Revision C.01,
 Gaussian 09:  EM64L-G09RevC.01 23-Sep-2011

 ------------------------
 # rhf/STO-3G nmr pop=nbo
 ------------------------

 99/9=1/99;
 -------
 comment
 -------
 Charge =  0 Multiplicity = 1

                         Standard orientation:
 ---------------------------------------------------------------------
 Center     Atomic      Atomic             Coordinates (Angstroms)
 Number     Number       Type             X           Y           Z
 ---------------------------------------------------------------------
      1          6           0       -3.672828   -0.168157   -0.196728
      2          6           0       -2.153525   -0.101191   -0.336236
      3          6           0       -0.039102    1.059975    0.422441
      4          6           0       -0.082020   -1.468397    0.333004
      5          6           0        0.680050   -0.208381   -0.111098
      6          6           0       -1.528158   -1.493610   -0.175055
      7          6           0       -1.543505    0.876909    0.668834
      8          8           0        0.137145    2.103546   -0.540229
      9          6           0        2.181885   -0.244866    0.320474
     10          6           0        2.949863    1.007485   -0.123449
     11          6           0        2.917070   -1.477281   -0.223609
     12          1           0       -3.967027   -0.500467    0.804623
     13          1           0       -4.121937    0.815241   -0.371200
     14          1           0       -4.098710   -0.865658   -0.925659
     15          1           0       -1.932078    0.262254   -1.348909
     16          1           0        0.422239    1.401274    1.356702
     17          1           0       -0.083002   -1.521507    1.429577
     18          1           0        0.406153   -2.381851   -0.020315
     19          1           0        0.665029   -0.180952   -1.210719
     20          1           0       -2.120430   -2.113526    0.509818
     21          1           0       -1.562607   -2.002518   -1.146980
     22          1           0       -1.699043    0.490927    1.684723
     23          1           0       -2.058134    1.843631    0.610245
     24          1           0       -0.238272    2.917462   -0.163286
     25          1           0        2.228193   -0.290607    1.416637
     26          1           0        2.873251    1.155520   -1.205864
     27          1           0        2.577930    1.906628    0.376208
     28          1           0        4.012475    0.924547    0.130542
     29          1           0        2.805248   -1.557503   -1.310035
     30          1           0        2.547197   -2.400234    0.231895
     31          1           0        3.988001   -1.425939    0.002360
 ---------------------------------------------------------------------

 SCF Done:  E(RHF) =  -459.614060422     A.U. after   10 cycles

      1  C    Isotropic =   221.1017   Anisotropy =    27.6084

      2  C    Isotropic =   217.1870   Anisotropy =     8.1227

      3  C    Isotropic =   186.4067   Anisotropy =    33.5056

      4  C    Isotropic =   218.8782   Anisotropy =    16.1884

      5  C    Isotropic =   208.7183   Anisotropy =    16.7919

      6  C    Isotropic =   216.4916   Anisotropy =    19.9142

      7  C    Isotropic =   213.2870   Anisotropy =    19.7041

      8  O    Isotropic =   347.4208   Anisotropy =    99.1475

      9  C    Isotropic =   211.2880   Anisotropy =    18.1678

     10  C    Isotropic =   220.9450   Anisotropy =    24.3253

     11  C    Isotropic =   221.2652   Anisotropy =    25.7386

     12  H    Isotropic =    32.7262   Anisotropy =    11.7581

     13  H    Isotropic =    32.5109   Anisotropy =    13.6787

     14  H    Isotropic =    32.3503   Anisotropy =    13.7405

     15  H    Isotropic =    32.3407   Anisotropy =     9.9485

     16  H    Isotropic =    31.9596   Anisotropy =     8.2701

     17  H    Isotropic =    32.8594   Anisotropy =    10.8353

     18  H    Isotropic =    32.2771   Anisotropy =    12.7458

     19  H    Isotropic =    32.3767   Anisotropy =     7.4229

     20  H    Isotropic =    32.5676   Anisotropy =    12.8126

     21  H    Isotropic =    32.1976   Anisotropy =    13.3840

     22  H    Isotropic =    32.6049   Anisotropy =    10.5387

     23  H    Isotropic =    32.8840   Anisotropy =    12.2986

     24  H    Isotropic =    35.0365   Anisotropy =    19.1952

     25  H    Isotropic =    32.7497   Anisotropy =    10.0165

     26  H    Isotropic =    32.2598   Anisotropy =    10.6543

     27  H    Isotropic =    32.0900   Anisotropy =    10.1499

     28  H    Isotropic =    32.5189   Anisotropy =    14.4166

     29  H    Isotropic =    32.5560   Anisotropy =    11.0703

     30  H    Isotropic =    32.3588   Anisotropy =    11.3083

     31  H    Isotropic =    32.4898   Anisotropy =    14.2534

 The electronic state is 1-A.
 Alpha  occ. eigenvalues --  -20.23436 -11.08365 -11.04359 -11.04339 -11.04305
 Alpha  occ. eigenvalues --  -11.03688 -11.03482 -11.03305 -11.03084 -11.02694
 Alpha  occ. eigenvalues --  -11.02204  -1.27538  -1.07928  -1.03446  -0.96671
 Alpha  occ. eigenvalues --   -0.94494  -0.88306  -0.87682  -0.79719  -0.77567
 Alpha  occ. eigenvalues --   -0.73837  -0.68538  -0.62698  -0.60764  -0.59592
 Alpha  occ. eigenvalues --   -0.57142  -0.54636  -0.54323  -0.53017  -0.52626
 Alpha  occ. eigenvalues --   -0.50971  -0.49573  -0.49469  -0.48637  -0.45758
 Alpha  occ. eigenvalues --   -0.45399  -0.43625  -0.42696  -0.42278  -0.40509
 Alpha  occ. eigenvalues --   -0.38934  -0.38427  -0.36955  -0.32882
 Alpha virt. eigenvalues --    0.52849   0.55628   0.57509   0.59845   0.60882
 Alpha virt. eigenvalues --    0.62101   0.62226   0.63623   0.65412   0.67531
 Alpha virt. eigenvalues --    0.69279   0.69876   0.70783   0.71602   0.72320

 Mulliken atomic charges:
              1
     1  C   -0.171331
     2  C   -0.023997
     3  C    0.076150
     4  C   -0.103173
     5  C   -0.031991
     6  C   -0.100818
     7  C   -0.112202
     8  O   -0.313152
     9  C   -0.017410
    10  C   -0.171955
    11  C   -0.173793
    12  H    0.051926
    13  H    0.052791
    14  H    0.054550
    15  H    0.052900
    16  H    0.038934
    17  H    0.044941
    18  H    0.055183
    19  H    0.057087
    20  H    0.048682
    21  H    0.048418
    22  H    0.048691
    23  H    0.048099
    24  H    0.173556
    25  H    0.042727
    26  H    0.058198
    27  H    0.056464
    28  H    0.050426
    29  H    0.053157
    30  H    0.052900
    31  H    0.054043
 Sum of Mulliken atomic charges =   0.00000

 Dipole moment (field-independent basis, Debye):
    X=             -0.6142    Y=              0.0155    Z=              1.1322  Tot=              1.2882
 Quadrupole moment (field-independent basis, Debye-Ang):
   XX=            -68.5405   YY=            -65.7942   ZZ=            -67.6975
   XY=             -1.7554   XZ=              0.3111   YZ=              2.5536

 Summary of Natural Population Analysis:

                                       Natural Population
                Natural  -----------------------------------------------
    Atom  No    Charge         Core      Valence    Rydberg      Total
 -----------------------------------------------------------------------
      C    1   -0.12613      1.99997     4.12616    0.00000     6.12613
      C    2    0.01279      1.99997     3.98724    0.00000     5.98721
      C    3    0.14539      1.99989     3.85472    0.00000     5.85461
      C    4   -0.06610      1.99996     4.06614    0.00000     6.06610
      C    5   -0.00948      1.99995     4.00953    0.00000     6.00948
      C    6   -0.06313      1.99996     4.06317    0.00000     6.06313
      C    7   -0.08885      1.99996     4.08888    0.00000     6.08885
      O    8   -0.33477      1.99999     6.33478    0.00000     8.33477
      C    9    0.02450      1.99996     3.97554    0.00000     5.97550
      C   10   -0.12844      1.99997     4.12848    0.00000     6.12844
      C   11   -0.12974      1.99997     4.12977    0.00000     6.12974
      H   12    0.03472      0.00000     0.96528    0.00000     0.96528
      H   13    0.03555      0.00000     0.96445    0.00000     0.96445
      H   14    0.03727      0.00000     0.96273    0.00000     0.96273
      H   15    0.02838      0.00000     0.97162    0.00000     0.97162
      H   16    0.00299      0.00000     0.99701    0.00000     0.99701
      H   17    0.02425      0.00000     0.97575    0.00000     0.97575
      H   18    0.03389      0.00000     0.96611    0.00000     0.96611
      H   19    0.03084      0.00000     0.96916    0.00000     0.96916
      H   20    0.02795      0.00000     0.97205    0.00000     0.97205
      H   21    0.02758      0.00000     0.97242    0.00000     0.97242
      H   22    0.02866      0.00000     0.97134    0.00000     0.97134
      H   23    0.02865      0.00000     0.97135    0.00000     0.97135
      H   24    0.18586      0.00000     0.81414    0.00000     0.81414
      H   25    0.01716      0.00000     0.98284    0.00000     0.98284
      H   26    0.04034      0.00000     0.95966    0.00000     0.95966
      H   27    0.03849      0.00000     0.96151    0.00000     0.96151
      H   28    0.03333      0.00000     0.96667    0.00000     0.96667
      H   29    0.03580      0.00000     0.96420    0.00000     0.96420
      H   30    0.03539      0.00000     0.96461    0.00000     0.96461
      H   31    0.03686      0.00000     0.96314    0.00000     0.96314
 =======================================================================
   * Total *    0.00000     21.99955    66.00045    0.00000    88.00000

 Normal termination of Gaussian 09 at Tue Aug  3 16:36:45 2021.
