 Gaussian 09, Revision C.01,
 Gaussian 09:  EM64L-G09RevC.01 23-Sep-2011

 ------------------------
 # rhf/STO-3G nmr pop=nbo
 ------------------------

 99/9=1/99;
 -------
 comment
 -------
 Charge =  0 Multiplicity = 1

                         Standard orientation:
 ---------------------------------------------------------------------
 Center     Atomic      Atomic             Coordinates (Angstroms)
 Number     Number       Type             X           Y           Z
 ---------------------------------------------------------------------
      1          6           0       -3.186713   -0.146110    1.084847
      2          6           0       -2.325253   -0.370064   -0.158560
      3          6           0       -0.212368    1.040285   -0.038234
      4          6           0       -0.103278   -1.385462   -0.818599
      5          6           0        0.718139   -0.106371   -0.519493
      6          6           0       -1.325318   -1.511265    0.085733
      7          6           0       -1.628661    0.924661   -0.602001
      8          8           0        0.325232    2.302725   -0.430674
      9          6           0        1.891767   -0.375217    0.481280
     10          6           0        2.630160    0.903659    0.900630
     11          6           0        2.932088   -1.346781   -0.098560
     12          1           0       -3.693915   -1.071774    1.376906
     13          1           0       -2.583211    0.193438    1.933319
     14          1           0       -3.955761    0.609688    0.893387
     15          1           0       -3.001567   -0.670874   -0.969857
     16          1           0       -0.273807    1.044396    1.056374
     17          1           0        0.498144   -2.293354   -0.736262
     18          1           0       -0.442413   -1.349623   -1.862635
     19          1           0        1.186366    0.202686   -1.465193
     20          1           0       -0.997134   -1.526016    1.132776
     21          1           0       -1.823836   -2.471194   -0.095426
     22          1           0       -2.220758    1.807917   -0.331544
     23          1           0       -1.573502    0.948778   -1.699283
     24          1           0        0.358599    2.324598   -1.402245
     25          1           0        1.477808   -0.830062    1.390535
     26          1           0        3.489282    0.666899    1.538307
     27          1           0        3.001359    1.450897    0.027623
     28          1           0        1.986050    1.570102    1.481498
     29          1           0        3.778260   -1.465451    0.587597
     30          1           0        3.324055   -0.980738   -1.053581
     31          1           0        2.520744   -2.346127   -0.259160
 ---------------------------------------------------------------------

 SCF Done:  E(RHF) =  -459.611688704     A.U. after   10 cycles

      1  C    Isotropic =   220.9783   Anisotropy =    26.7832

      2  C    Isotropic =   216.3352   Anisotropy =     9.6811

      3  C    Isotropic =   188.8068   Anisotropy =    39.5770

      4  C    Isotropic =   218.8705   Anisotropy =    15.1318

      5  C    Isotropic =   206.0934   Anisotropy =    13.8477

      6  C    Isotropic =   217.8089   Anisotropy =    18.3182

      7  C    Isotropic =   215.2471   Anisotropy =    19.0102

      8  O    Isotropic =   344.1541   Anisotropy =    79.6801

      9  C    Isotropic =   212.6773   Anisotropy =    15.8468

     10  C    Isotropic =   221.3098   Anisotropy =    23.4265

     11  C    Isotropic =   221.1624   Anisotropy =    27.0014

     12  H    Isotropic =    32.4410   Anisotropy =    13.9513

     13  H    Isotropic =    32.5746   Anisotropy =     9.6770

     14  H    Isotropic =    32.4735   Anisotropy =    14.2628

     15  H    Isotropic =    32.4089   Anisotropy =    14.0013

     16  H    Isotropic =    31.6306   Anisotropy =     5.9346

     17  H    Isotropic =    32.5036   Anisotropy =    12.8483

     18  H    Isotropic =    32.6001   Anisotropy =    12.4584

     19  H    Isotropic =    33.0951   Anisotropy =     9.4291

     20  H    Isotropic =    32.9641   Anisotropy =     8.8802

     21  H    Isotropic =    32.4216   Anisotropy =    14.7547

     22  H    Isotropic =    32.1967   Anisotropy =    12.9229

     23  H    Isotropic =    32.8100   Anisotropy =    11.2866

     24  H    Isotropic =    35.3601   Anisotropy =    15.6449

     25  H    Isotropic =    32.6785   Anisotropy =     9.2066

     26  H    Isotropic =    32.5133   Anisotropy =    14.4587

     27  H    Isotropic =    32.3841   Anisotropy =    10.7859

     28  H    Isotropic =    32.0115   Anisotropy =     9.9227

     29  H    Isotropic =    32.4852   Anisotropy =    14.2262

     30  H    Isotropic =    32.6757   Anisotropy =    11.6203

     31  H    Isotropic =    32.3845   Anisotropy =    11.2577

 The electronic state is 1-A.
 Alpha  occ. eigenvalues --  -20.23719 -11.08556 -11.04746 -11.04529 -11.04366
 Alpha  occ. eigenvalues --  -11.03791 -11.03745 -11.03653 -11.03225 -11.02894
 Alpha  occ. eigenvalues --  -11.02293  -1.27780  -1.08300  -1.03539  -0.96853
 Alpha  occ. eigenvalues --   -0.94527  -0.88420  -0.87950  -0.80299  -0.78280
 Alpha  occ. eigenvalues --   -0.73660  -0.69451  -0.62623  -0.61693  -0.58525
 Alpha  occ. eigenvalues --   -0.56416  -0.54834  -0.54395  -0.53673  -0.52144
 Alpha  occ. eigenvalues --   -0.51695  -0.50173  -0.49540  -0.47578  -0.47026
 Alpha  occ. eigenvalues --   -0.46289  -0.43962  -0.42865  -0.42475  -0.41649
 Alpha  occ. eigenvalues --   -0.39791  -0.39165  -0.36043  -0.32381
 Alpha virt. eigenvalues --    0.53270   0.54496   0.57879   0.59526   0.61111
 Alpha virt. eigenvalues --    0.61542   0.62089   0.63913   0.65096   0.65464
 Alpha virt. eigenvalues --    0.68466   0.68877   0.70748   0.71339   0.71622

 Mulliken atomic charges:
              1
     1  C   -0.171131
     2  C   -0.024675
     3  C    0.075465
     4  C   -0.104269
     5  C   -0.038983
     6  C   -0.101583
     7  C   -0.114547
     8  O   -0.310974
     9  C   -0.018863
    10  C   -0.173000
    11  C   -0.173764
    12  H    0.053978
    13  H    0.052508
    14  H    0.053820
    15  H    0.047969
    16  H    0.058516
    17  H    0.055066
    18  H    0.046452
    19  H    0.041357
    20  H    0.048278
    21  H    0.051473
    22  H    0.059257
    23  H    0.042071
    24  H    0.175431
    25  H    0.043511
    26  H    0.051252
    27  H    0.055381
    28  H    0.061161
    29  H    0.054598
    30  H    0.051910
    31  H    0.052334
 Sum of Mulliken atomic charges =   0.00000

 Dipole moment (field-independent basis, Debye):
    X=             -0.4815    Y=             -1.1333    Z=             -0.8885  Tot=              1.5184
 Quadrupole moment (field-independent basis, Debye-Ang):
   XX=            -68.1391   YY=            -71.9616   ZZ=            -64.9723
   XY=             -0.8843   XZ=             -0.0075   YZ=             -2.1923

 Summary of Natural Population Analysis:

                                       Natural Population
                Natural  -----------------------------------------------
    Atom  No    Charge         Core      Valence    Rydberg      Total
 -----------------------------------------------------------------------
      C    1   -0.12616      1.99998     4.12618    0.00000     6.12616
      C    2    0.01406      1.99997     3.98598    0.00000     5.98594
      C    3    0.14176      1.99989     3.85835    0.00000     5.85824
      C    4   -0.06684      1.99995     4.06689    0.00000     6.06684
      C    5   -0.01591      1.99995     4.01596    0.00000     6.01591
      C    6   -0.06426      1.99996     4.06429    0.00000     6.06426
      C    7   -0.09166      1.99996     4.09170    0.00000     6.09166
      O    8   -0.33179      1.99999     6.33180    0.00000     8.33179
      C    9    0.02326      1.99996     3.97678    0.00000     5.97674
      C   10   -0.12967      1.99997     4.12970    0.00000     6.12967
      C   11   -0.12934      1.99997     4.12938    0.00000     6.12934
      H   12    0.03661      0.00000     0.96339    0.00000     0.96339
      H   13    0.03516      0.00000     0.96484    0.00000     0.96484
      H   14    0.03639      0.00000     0.96361    0.00000     0.96361
      H   15    0.02371      0.00000     0.97629    0.00000     0.97629
      H   16    0.02335      0.00000     0.97665    0.00000     0.97665
      H   17    0.03326      0.00000     0.96674    0.00000     0.96674
      H   18    0.02587      0.00000     0.97413    0.00000     0.97413
      H   19    0.01619      0.00000     0.98381    0.00000     0.98381
      H   20    0.02751      0.00000     0.97249    0.00000     0.97249
      H   21    0.03093      0.00000     0.96907    0.00000     0.96907
      H   22    0.03841      0.00000     0.96159    0.00000     0.96159
      H   23    0.02254      0.00000     0.97746    0.00000     0.97746
      H   24    0.18766      0.00000     0.81234    0.00000     0.81234
      H   25    0.01777      0.00000     0.98223    0.00000     0.98223
      H   26    0.03416      0.00000     0.96584    0.00000     0.96584
      H   27    0.03784      0.00000     0.96216    0.00000     0.96216
      H   28    0.04273      0.00000     0.95727    0.00000     0.95727
      H   29    0.03731      0.00000     0.96269    0.00000     0.96269
      H   30    0.03458      0.00000     0.96542    0.00000     0.96542
      H   31    0.03459      0.00000     0.96541    0.00000     0.96541
 =======================================================================
   * Total *    0.00000     21.99955    66.00045    0.00000    88.00000

 Normal termination of Gaussian 09 at Tue Aug  3 16:37:13 2021.
