 Gaussian 09, Revision C.01,
 Gaussian 09:  EM64L-G09RevC.01 23-Sep-2011

 ------------------------
 # rhf/STO-3G nmr pop=nbo
 ------------------------

 99/9=1/99;
 -------
 comment
 -------
 Charge =  0 Multiplicity = 1

                         Standard orientation:
 ---------------------------------------------------------------------
 Center     Atomic      Atomic             Coordinates (Angstroms)
 Number     Number       Type             X           Y           Z
 ---------------------------------------------------------------------
      1          6           0       -3.660961    0.065094    0.040388
      2          6           0       -2.163728    0.070996   -0.261516
      3          6           0        0.119471    0.876103    0.510649
      4          6           0       -0.165688   -1.541693   -0.173415
      5          6           0        0.639648   -0.255456   -0.409795
      6          6           0       -1.650236   -1.357853   -0.505665
      7          6           0       -1.372667    0.752666    0.860298
      8          8           0        0.333358    2.137974   -0.127040
      9          6           0        2.174062   -0.509008   -0.316747
     10          6           0        2.644204   -1.054928    1.035291
     11          6           0        2.991652    0.733701   -0.681271
     12          1           0       -4.218546   -0.411573   -0.772702
     13          1           0       -3.878567   -0.477828    0.966419
     14          1           0       -4.038145    1.087105    0.151857
     15          1           0       -2.018926    0.649660   -1.183746
     16          1           0        0.679155    0.912758    1.449646
     17          1           0       -0.081316   -1.845366    0.877437
     18          1           0        0.234718   -2.368734   -0.771575
     19          1           0        0.458155    0.047507   -1.452253
     20          1           0       -2.225972   -2.087594    0.077400
     21          1           0       -1.820966   -1.612048   -1.559605
     22          1           0       -1.477519    0.158840    1.777796
     23          1           0       -1.793512    1.744034    1.068083
     24          1           0       -0.195015    2.155302   -0.942970
     25          1           0        2.415337   -1.273837   -1.068196
     26          1           0        2.454660   -0.351619    1.851175
     27          1           0        2.155165   -2.002702    1.277938
     28          1           0        3.722696   -1.248413    1.013650
     29          1           0        2.906974    1.514000    0.081614
     30          1           0        2.666820    1.149214   -1.640754
     31          1           0        4.053396    0.479776   -0.774197
 ---------------------------------------------------------------------

 SCF Done:  E(RHF) =  -459.613577884     A.U. after   10 cycles

      1  C    Isotropic =   221.2587   Anisotropy =    27.6226

      2  C    Isotropic =   217.7066   Anisotropy =     9.4853

      3  C    Isotropic =   190.0814   Anisotropy =    37.6502

      4  C    Isotropic =   218.2441   Anisotropy =    15.8328

      5  C    Isotropic =   208.2673   Anisotropy =    11.0167

      6  C    Isotropic =   216.5961   Anisotropy =    19.2093

      7  C    Isotropic =   214.2743   Anisotropy =    19.3499

      8  O    Isotropic =   345.5648   Anisotropy =    55.5675

      9  C    Isotropic =   212.5676   Anisotropy =    17.0503

     10  C    Isotropic =   224.4097   Anisotropy =    20.9858

     11  C    Isotropic =   221.2443   Anisotropy =    24.4003

     12  H    Isotropic =    32.4293   Anisotropy =    13.6508

     13  H    Isotropic =    32.7117   Anisotropy =    11.8689

     14  H    Isotropic =    32.5495   Anisotropy =    13.8134

     15  H    Isotropic =    33.1187   Anisotropy =    10.0617

     16  H    Isotropic =    31.4573   Anisotropy =     9.1975

     17  H    Isotropic =    32.7105   Anisotropy =    10.0944

     18  H    Isotropic =    32.5618   Anisotropy =    13.0592

     19  H    Isotropic =    33.0472   Anisotropy =     7.9178

     20  H    Isotropic =    32.6055   Anisotropy =    12.8427

     21  H    Isotropic =    32.3501   Anisotropy =    13.4259

     22  H    Isotropic =    32.5376   Anisotropy =    10.8843

     23  H    Isotropic =    32.3076   Anisotropy =    12.9776

     24  H    Isotropic =    35.0311   Anisotropy =    13.6496

     25  H    Isotropic =    32.4664   Anisotropy =    12.3360

     26  H    Isotropic =    32.6804   Anisotropy =     9.8452

     27  H    Isotropic =    32.6181   Anisotropy =    11.2281

     28  H    Isotropic =    32.5328   Anisotropy =    14.7921

     29  H    Isotropic =    32.0984   Anisotropy =     9.1040

     30  H    Isotropic =    32.3900   Anisotropy =    11.7957

     31  H    Isotropic =    32.4434   Anisotropy =    14.9605

 The electronic state is 1-A.
 Alpha  occ. eigenvalues --  -20.23485 -11.08421 -11.05009 -11.04573 -11.04405
 Alpha  occ. eigenvalues --  -11.03799 -11.03760 -11.03703 -11.03506 -11.02909
 Alpha  occ. eigenvalues --  -11.02354  -1.27622  -1.08325  -1.03779  -0.97074
 Alpha  occ. eigenvalues --   -0.94583  -0.88651  -0.87955  -0.79841  -0.79268
 Alpha  occ. eigenvalues --   -0.73693  -0.68341  -0.63352  -0.61041  -0.58312
 Alpha  occ. eigenvalues --   -0.57479  -0.56067  -0.53530  -0.53106  -0.52697
 Alpha  occ. eigenvalues --   -0.51994  -0.50682  -0.48823  -0.48613  -0.46533
 Alpha  occ. eigenvalues --   -0.45901  -0.44726  -0.42930  -0.42538  -0.41656
 Alpha  occ. eigenvalues --   -0.39388  -0.39164  -0.35870  -0.32626
 Alpha virt. eigenvalues --    0.53813   0.54879   0.57261   0.59141   0.60682
 Alpha virt. eigenvalues --    0.61584   0.61902   0.63904   0.65136   0.65768
 Alpha virt. eigenvalues --    0.68115   0.69566   0.70362   0.71328   0.72036

 Mulliken atomic charges:
              1
     1  C   -0.171192
     2  C   -0.025110
     3  C    0.072406
     4  C   -0.102831
     5  C   -0.038483
     6  C   -0.101842
     7  C   -0.115265
     8  O   -0.311876
     9  C   -0.017725
    10  C   -0.176225
    11  C   -0.172914
    12  H    0.054849
    13  H    0.054234
    14  H    0.054226
    15  H    0.038824
    16  H    0.060283
    17  H    0.048467
    18  H    0.051623
    19  H    0.041647
    20  H    0.050344
    21  H    0.047845
    22  H    0.050683
    23  H    0.059800
    24  H    0.173203
    25  H    0.046038
    26  H    0.053223
    27  H    0.053538
    28  H    0.055153
    29  H    0.062971
    30  H    0.053085
    31  H    0.051018
 Sum of Mulliken atomic charges =   0.00000

 Dipole moment (field-independent basis, Debye):
    X=             -0.8727    Y=             -1.1495    Z=             -0.4955  Tot=              1.5259
 Quadrupole moment (field-independent basis, Debye-Ang):
   XX=            -68.3398   YY=            -71.5069   ZZ=            -65.7840
   XY=             -2.3425   XZ=              0.3931   YZ=             -1.3378

 Summary of Natural Population Analysis:

                                       Natural Population
                Natural  -----------------------------------------------
    Atom  No    Charge         Core      Valence    Rydberg      Total
 -----------------------------------------------------------------------
      C    1   -0.12641      1.99997     4.12644    0.00000     6.12641
      C    2    0.01350      1.99997     3.98653    0.00000     5.98650
      C    3    0.13974      1.99989     3.86037    0.00000     5.86026
      C    4   -0.06577      1.99996     4.06581    0.00000     6.06577
      C    5   -0.01747      1.99996     4.01752    0.00000     6.01747
      C    6   -0.06409      1.99996     4.06413    0.00000     6.06409
      C    7   -0.09187      1.99996     4.09190    0.00000     6.09187
      O    8   -0.33286      1.99999     6.33287    0.00000     8.33286
      C    9    0.02334      1.99996     3.97669    0.00000     5.97666
      C   10   -0.13242      1.99997     4.13245    0.00000     6.13242
      C   11   -0.12963      1.99997     4.12966    0.00000     6.12963
      H   12    0.03750      0.00000     0.96250    0.00000     0.96250
      H   13    0.03686      0.00000     0.96314    0.00000     0.96314
      H   14    0.03685      0.00000     0.96315    0.00000     0.96315
      H   15    0.01534      0.00000     0.98466    0.00000     0.98466
      H   16    0.02440      0.00000     0.97560    0.00000     0.97560
      H   17    0.02758      0.00000     0.97242    0.00000     0.97242
      H   18    0.03088      0.00000     0.96912    0.00000     0.96912
      H   19    0.01746      0.00000     0.98254    0.00000     0.98254
      H   20    0.02941      0.00000     0.97059    0.00000     0.97059
      H   21    0.02702      0.00000     0.97298    0.00000     0.97298
      H   22    0.03060      0.00000     0.96940    0.00000     0.96940
      H   23    0.03907      0.00000     0.96093    0.00000     0.96093
      H   24    0.18540      0.00000     0.81460    0.00000     0.81460
      H   25    0.02086      0.00000     0.97914    0.00000     0.97914
      H   26    0.03590      0.00000     0.96410    0.00000     0.96410
      H   27    0.03617      0.00000     0.96383    0.00000     0.96383
      H   28    0.03822      0.00000     0.96178    0.00000     0.96178
      H   29    0.04455      0.00000     0.95545    0.00000     0.95545
      H   30    0.03588      0.00000     0.96412    0.00000     0.96412
      H   31    0.03401      0.00000     0.96599    0.00000     0.96599
 =======================================================================
   * Total *    0.00000     21.99956    66.00044    0.00000    88.00000

 Normal termination of Gaussian 09 at Tue Aug  3 16:36:13 2021.
