 Gaussian 09, Revision C.01,
 Gaussian 09:  EM64L-G09RevC.01 23-Sep-2011

 ------------------------
 # rhf/STO-3G nmr pop=nbo
 ------------------------

 99/9=1/99;
 -------
 comment
 -------
 Charge =  0 Multiplicity = 1

                         Standard orientation:
 ---------------------------------------------------------------------
 Center     Atomic      Atomic             Coordinates (Angstroms)
 Number     Number       Type             X           Y           Z
 ---------------------------------------------------------------------
      1          6           0       -3.659067    0.059187    0.040654
      2          6           0       -2.163779    0.060958   -0.270242
      3          6           0        0.119980    0.890754    0.461128
      4          6           0       -0.168353   -1.550906   -0.148554
      5          6           0        0.640773   -0.273434   -0.416855
      6          6           0       -1.650532   -1.371529   -0.493377
      7          6           0       -1.365477    0.760015    0.835416
      8          8           0        0.301250    2.108262   -0.267426
      9          6           0        2.174120   -0.526644   -0.305814
     10          6           0        2.632632   -1.035741    1.064524
     11          6           0        2.995549    0.705273   -0.697806
     12          1           0       -4.221156   -0.431408   -0.760966
     13          1           0       -3.870659   -0.468186    0.977010
     14          1           0       -4.036380    1.082666    0.137211
     15          1           0       -2.023457    0.625564   -1.202075
     16          1           0        0.699979    0.986009    1.383986
     17          1           0       -0.089562   -1.826366    0.910425
     18          1           0        0.232574   -2.394694   -0.722485
     19          1           0        0.466236   -0.001801   -1.469431
     20          1           0       -2.230267   -2.093598    0.095205
     21          1           0       -1.814432   -1.638779   -1.545147
     22          1           0       -1.453031    0.176565    1.761246
     23          1           0       -1.794161    1.749121    1.037137
     24          1           0        0.039580    2.841244    0.315455
     25          1           0        2.420224   -1.312052   -1.034080
     26          1           0        2.432690   -0.312406    1.860150
     27          1           0        2.143862   -1.978468    1.326699
     28          1           0        3.711791   -1.226541    1.058568
     29          1           0        2.899571    1.509043    0.038998
     30          1           0        2.682850    1.090232   -1.673930
     31          1           0        4.058668    0.450162   -0.769015
 ---------------------------------------------------------------------

 SCF Done:  E(RHF) =  -459.614197848     A.U. after   10 cycles

      1  C    Isotropic =   221.1095   Anisotropy =    27.5413

      2  C    Isotropic =   216.9100   Anisotropy =     8.6250

      3  C    Isotropic =   188.9880   Anisotropy =    38.5186

      4  C    Isotropic =   217.9925   Anisotropy =    15.9384

      5  C    Isotropic =   210.0734   Anisotropy =    12.3603

      6  C    Isotropic =   216.3621   Anisotropy =    19.1677

      7  C    Isotropic =   213.1283   Anisotropy =    20.2533

      8  O    Isotropic =   347.8624   Anisotropy =    99.0323

      9  C    Isotropic =   212.5329   Anisotropy =    16.9143

     10  C    Isotropic =   224.4966   Anisotropy =    20.6133

     11  C    Isotropic =   221.1232   Anisotropy =    24.5382

     12  H    Isotropic =    32.3450   Anisotropy =    13.8309

     13  H    Isotropic =    32.7264   Anisotropy =    11.6547

     14  H    Isotropic =    32.5153   Anisotropy =    13.6759

     15  H    Isotropic =    32.2957   Anisotropy =    10.0792

     16  H    Isotropic =    31.9944   Anisotropy =     8.3042

     17  H    Isotropic =    32.7146   Anisotropy =     9.7832

     18  H    Isotropic =    32.4735   Anisotropy =    13.1993

     19  H    Isotropic =    32.1229   Anisotropy =     8.6429

     20  H    Isotropic =    32.5782   Anisotropy =    12.8368

     21  H    Isotropic =    32.1653   Anisotropy =    13.6578

     22  H    Isotropic =    32.6368   Anisotropy =    10.1730

     23  H    Isotropic =    32.8986   Anisotropy =    12.2572

     24  H    Isotropic =    35.0922   Anisotropy =    19.1990

     25  H    Isotropic =    32.3956   Anisotropy =    12.5927

     26  H    Isotropic =    32.7831   Anisotropy =     9.6527

     27  H    Isotropic =    32.6226   Anisotropy =    11.2401

     28  H    Isotropic =    32.5698   Anisotropy =    14.7019

     29  H    Isotropic =    32.2886   Anisotropy =     9.0145

     30  H    Isotropic =    32.1567   Anisotropy =    12.0191

     31  H    Isotropic =    32.4581   Anisotropy =    14.8884

 The electronic state is 1-A.
 Alpha  occ. eigenvalues --  -20.23393 -11.08371 -11.04377 -11.04341 -11.04224
 Alpha  occ. eigenvalues --  -11.03712 -11.03520 -11.03317 -11.03107 -11.02806
 Alpha  occ. eigenvalues --  -11.02187  -1.27521  -1.07984  -1.03451  -0.96728
 Alpha  occ. eigenvalues --   -0.94408  -0.88502  -0.87634  -0.79727  -0.78581
 Alpha  occ. eigenvalues --   -0.73313  -0.67308  -0.63197  -0.60972  -0.59692
 Alpha  occ. eigenvalues --   -0.57298  -0.55239  -0.53591  -0.52781  -0.52463
 Alpha  occ. eigenvalues --   -0.52356  -0.49641  -0.48801  -0.48344  -0.46149
 Alpha  occ. eigenvalues --   -0.45601  -0.44131  -0.42621  -0.42106  -0.40178
 Alpha  occ. eigenvalues --   -0.38911  -0.38469  -0.36857  -0.32888
 Alpha virt. eigenvalues --    0.53129   0.56175   0.57388   0.59674   0.60913
 Alpha virt. eigenvalues --    0.61864   0.62202   0.64209   0.65067   0.66624
 Alpha virt. eigenvalues --    0.69489   0.69791   0.70860   0.71225   0.71547

 Mulliken atomic charges:
              1
     1  C   -0.171367
     2  C   -0.023840
     3  C    0.074565
     4  C   -0.101811
     5  C   -0.032803
     6  C   -0.100978
     7  C   -0.111928
     8  O   -0.313471
     9  C   -0.017553
    10  C   -0.176286
    11  C   -0.171705
    12  H    0.054690
    13  H    0.051990
    14  H    0.052863
    15  H    0.052619
    16  H    0.040388
    17  H    0.046839
    18  H    0.051864
    19  H    0.057560
    20  H    0.048431
    21  H    0.048529
    22  H    0.048626
    23  H    0.048179
    24  H    0.173415
    25  H    0.046682
    26  H    0.051210
    27  H    0.053497
    28  H    0.054493
    29  H    0.056535
    30  H    0.058699
    31  H    0.050069
 Sum of Mulliken atomic charges =   0.00000

 Dipole moment (field-independent basis, Debye):
    X=             -0.5039    Y=             -0.2134    Z=              1.1149  Tot=              1.2420
 Quadrupole moment (field-independent basis, Debye-Ang):
   XX=            -68.6871   YY=            -66.5538   ZZ=            -67.1743
   XY=             -1.4730   XZ=              0.1783   YZ=              3.2493

 Summary of Natural Population Analysis:

                                       Natural Population
                Natural  -----------------------------------------------
    Atom  No    Charge         Core      Valence    Rydberg      Total
 -----------------------------------------------------------------------
      C    1   -0.12637      1.99997     4.12639    0.00000     6.12637
      C    2    0.01350      1.99997     3.98653    0.00000     5.98650
      C    3    0.14374      1.99988     3.85638    0.00000     5.85626
      C    4   -0.06462      1.99996     4.06466    0.00000     6.06462
      C    5   -0.01167      1.99995     4.01172    0.00000     6.01167
      C    6   -0.06314      1.99996     4.06318    0.00000     6.06314
      C    7   -0.08784      1.99996     4.08787    0.00000     6.08784
      O    8   -0.33494      1.99999     6.33495    0.00000     8.33494
      C    9    0.02324      1.99996     3.97680    0.00000     5.97676
      C   10   -0.13241      1.99997     4.13244    0.00000     6.13241
      C   11   -0.12832      1.99997     4.12835    0.00000     6.12832
      H   12    0.03740      0.00000     0.96260    0.00000     0.96260
      H   13    0.03477      0.00000     0.96523    0.00000     0.96523
      H   14    0.03562      0.00000     0.96438    0.00000     0.96438
      H   15    0.02790      0.00000     0.97210    0.00000     0.97210
      H   16    0.00422      0.00000     0.99578    0.00000     0.99578
      H   17    0.02598      0.00000     0.97402    0.00000     0.97402
      H   18    0.03114      0.00000     0.96886    0.00000     0.96886
      H   19    0.03189      0.00000     0.96811    0.00000     0.96811
      H   20    0.02757      0.00000     0.97243    0.00000     0.97243
      H   21    0.02763      0.00000     0.97237    0.00000     0.97237
      H   22    0.02840      0.00000     0.97160    0.00000     0.97160
      H   23    0.02853      0.00000     0.97147    0.00000     0.97147
      H   24    0.18574      0.00000     0.81426    0.00000     0.81426
      H   25    0.02152      0.00000     0.97848    0.00000     0.97848
      H   26    0.03407      0.00000     0.96593    0.00000     0.96593
      H   27    0.03614      0.00000     0.96386    0.00000     0.96386
      H   28    0.03759      0.00000     0.96241    0.00000     0.96241
      H   29    0.03875      0.00000     0.96125    0.00000     0.96125
      H   30    0.04089      0.00000     0.95911    0.00000     0.95911
      H   31    0.03307      0.00000     0.96693    0.00000     0.96693
 =======================================================================
   * Total *    0.00000     21.99955    66.00045    0.00000    88.00000

 Normal termination of Gaussian 09 at Tue Aug  3 16:36:48 2021.
