 Gaussian 09, Revision C.01,
 Gaussian 09:  EM64L-G09RevC.01 23-Sep-2011

 ------------------------
 # rhf/STO-3G nmr pop=nbo
 ------------------------

 99/9=1/99;
 -------
 comment
 -------
 Charge =  0 Multiplicity = 1

                         Standard orientation:
 ---------------------------------------------------------------------
 Center     Atomic      Atomic             Coordinates (Angstroms)
 Number     Number       Type             X           Y           Z
 ---------------------------------------------------------------------
      1          6           0        3.044297   -0.974685   -0.986409
      2          6           0        2.020312   -0.293427   -0.078751
      3          6           0        0.083026    1.381491   -0.042966
      4          6           0        0.005881   -0.676135    1.411591
      5          6           0       -0.848258    0.323201    0.597852
      6          6           0        1.100320   -1.333538    0.572563
      7          6           0        1.217906    0.757523   -0.863327
      8          8           0        0.629987    2.229525    0.971125
      9          6           0       -1.777809   -0.378868   -0.446076
     10          6           0       -2.677612    0.624328   -1.182263
     11          6           0       -2.677509   -1.443180    0.197801
     12          1           0        3.644767   -1.695499   -0.421507
     13          1           0        2.555442   -1.510707   -1.807008
     14          1           0        3.727385   -0.238023   -1.422216
     15          1           0        2.577668    0.216457    0.717635
     16          1           0       -0.485090    2.056207   -0.687567
     17          1           0       -0.617413   -1.446821    1.875124
     18          1           0        0.474817   -0.151039    2.253424
     19          1           0       -1.493933    0.839822    1.322247
     20          1           0        0.646845   -1.972162   -0.194828
     21          1           0        1.693309   -1.995737    1.215277
     22          1           0        0.800245    0.300705   -1.768802
     23          1           0        1.904080    1.548576   -1.191311
     24          1           0        1.226735    1.708601    1.531594
     25          1           0       -1.166545   -0.883884   -1.203177
     26          1           0       -3.400005    0.106133   -1.822803
     27          1           0       -3.238713    1.245621   -0.476276
     28          1           0       -2.098403    1.280901   -1.837335
     29          1           0       -3.238533   -1.029689    1.042498
     30          1           0       -2.096234   -2.299253    0.552229
     31          1           0       -3.399647   -1.836663   -0.526283
 ---------------------------------------------------------------------

 SCF Done:  E(RHF) =  -459.617495875     A.U. after   10 cycles

      1  C    Isotropic =   221.0747   Anisotropy =    28.3785

      2  C    Isotropic =   217.1465   Anisotropy =    10.5203

      3  C    Isotropic =   190.5912   Anisotropy =    39.4619

      4  C    Isotropic =   220.0462   Anisotropy =    14.9115

      5  C    Isotropic =   209.5214   Anisotropy =    17.4083

      6  C    Isotropic =   218.4924   Anisotropy =    17.6233

      7  C    Isotropic =   216.7720   Anisotropy =    16.9564

      8  O    Isotropic =   360.8993   Anisotropy =    50.7629

      9  C    Isotropic =   214.9777   Anisotropy =    14.3951

     10  C    Isotropic =   221.3755   Anisotropy =    26.1669

     11  C    Isotropic =   221.4308   Anisotropy =    25.4300

     12  H    Isotropic =    32.4849   Anisotropy =    13.9052

     13  H    Isotropic =    32.7336   Anisotropy =    11.1194

     14  H    Isotropic =    32.4622   Anisotropy =    14.0862

     15  H    Isotropic =    33.1409   Anisotropy =    11.4311

     16  H    Isotropic =    31.3270   Anisotropy =    10.8255

     17  H    Isotropic =    32.4351   Anisotropy =    12.7738

     18  H    Isotropic =    32.9732   Anisotropy =    12.6514

     19  H    Isotropic =    32.3739   Anisotropy =    11.8237

     20  H    Isotropic =    32.9089   Anisotropy =     9.0795

     21  H    Isotropic =    32.6647   Anisotropy =    14.4260

     22  H    Isotropic =    32.7519   Anisotropy =     9.4941

     23  H    Isotropic =    32.2137   Anisotropy =    14.1207

     24  H    Isotropic =    34.6012   Anisotropy =    12.5647

     25  H    Isotropic =    32.7993   Anisotropy =     8.3686

     26  H    Isotropic =    32.5384   Anisotropy =    14.1879

     27  H    Isotropic =    32.5298   Anisotropy =    12.0590

     28  H    Isotropic =    32.3979   Anisotropy =    10.7190

     29  H    Isotropic =    32.6170   Anisotropy =    12.0542

     30  H    Isotropic =    32.4217   Anisotropy =    10.4588

     31  H    Isotropic =    32.5553   Anisotropy =    14.1568

 The electronic state is 1-A.
 Alpha  occ. eigenvalues --  -20.23394 -11.08372 -11.05139 -11.04957 -11.04353
 Alpha  occ. eigenvalues --  -11.04013 -11.03962 -11.03815 -11.03533 -11.03192
 Alpha  occ. eigenvalues --  -11.03123  -1.27581  -1.08372  -1.03799  -0.97378
 Alpha  occ. eigenvalues --   -0.95170  -0.88907  -0.88225  -0.79904  -0.78417
 Alpha  occ. eigenvalues --   -0.74944  -0.68640  -0.63710  -0.60212  -0.58678
 Alpha  occ. eigenvalues --   -0.58071  -0.56880  -0.55094  -0.52729  -0.52015
 Alpha  occ. eigenvalues --   -0.51281  -0.50282  -0.49847  -0.48335  -0.47849
 Alpha  occ. eigenvalues --   -0.46957  -0.44093  -0.43780  -0.42531  -0.40841
 Alpha  occ. eigenvalues --   -0.40132  -0.38939  -0.36331  -0.32755
 Alpha virt. eigenvalues --    0.52832   0.56365   0.56559   0.58984   0.60428
 Alpha virt. eigenvalues --    0.61459   0.62407   0.62650   0.64512   0.67509
 Alpha virt. eigenvalues --    0.68304   0.69213   0.70002   0.71619   0.72433

 Mulliken atomic charges:
              1
     1  C   -0.171338
     2  C   -0.026695
     3  C    0.073197
     4  C   -0.106984
     5  C   -0.040920
     6  C   -0.103213
     7  C   -0.115936
     8  O   -0.315125
     9  C   -0.022119
    10  C   -0.173943
    11  C   -0.173286
    12  H    0.054728
    13  H    0.053708
    14  H    0.055251
    15  H    0.041006
    16  H    0.062266
    17  H    0.056031
    18  H    0.042798
    19  H    0.053377
    20  H    0.049455
    21  H    0.050527
    22  H    0.051701
    23  H    0.057947
    24  H    0.176691
    25  H    0.046224
    26  H    0.054480
    27  H    0.055052
    28  H    0.053299
    29  H    0.053744
    30  H    0.053472
    31  H    0.054605
 Sum of Mulliken atomic charges =   0.00000

 Dipole moment (field-independent basis, Debye):
    X=              0.2682    Y=             -1.5309    Z=             -0.1958  Tot=              1.5665
 Quadrupole moment (field-independent basis, Debye-Ang):
   XX=            -66.6313   YY=            -73.6456   ZZ=            -66.6104
   XY=             -0.1950   XZ=              1.1983   YZ=             -1.5641

 Summary of Natural Population Analysis:

                                       Natural Population
                Natural  -----------------------------------------------
    Atom  No    Charge         Core      Valence    Rydberg      Total
 -----------------------------------------------------------------------
      C    1   -0.12660      1.99997     4.12662    0.00000     6.12660
      C    2    0.01284      1.99997     3.98719    0.00000     5.98716
      C    3    0.14007      1.99988     3.86004    0.00000     5.85993
      C    4   -0.06913      1.99995     4.06917    0.00000     6.06913
      C    5   -0.01892      1.99995     4.01897    0.00000     6.01892
      C    6   -0.06627      1.99996     4.06631    0.00000     6.06627
      C    7   -0.09246      1.99996     4.09250    0.00000     6.09246
      O    8   -0.33600      1.99999     6.33600    0.00000     8.33600
      C    9    0.02012      1.99996     3.97993    0.00000     5.97988
      C   10   -0.12970      1.99997     4.12974    0.00000     6.12970
      C   11   -0.12906      1.99997     4.12909    0.00000     6.12906
      H   12    0.03733      0.00000     0.96267    0.00000     0.96267
      H   13    0.03633      0.00000     0.96367    0.00000     0.96367
      H   14    0.03779      0.00000     0.96221    0.00000     0.96221
      H   15    0.01735      0.00000     0.98265    0.00000     0.98265
      H   16    0.02589      0.00000     0.97411    0.00000     0.97411
      H   17    0.03455      0.00000     0.96545    0.00000     0.96545
      H   18    0.02259      0.00000     0.97741    0.00000     0.97741
      H   19    0.02724      0.00000     0.97276    0.00000     0.97276
      H   20    0.02869      0.00000     0.97131    0.00000     0.97131
      H   21    0.02999      0.00000     0.97001    0.00000     0.97001
      H   22    0.03160      0.00000     0.96840    0.00000     0.96840
      H   23    0.03708      0.00000     0.96292    0.00000     0.96292
      H   24    0.18837      0.00000     0.81163    0.00000     0.81163
      H   25    0.02048      0.00000     0.97952    0.00000     0.97952
      H   26    0.03720      0.00000     0.96280    0.00000     0.96280
      H   27    0.03744      0.00000     0.96256    0.00000     0.96256
      H   28    0.03571      0.00000     0.96429    0.00000     0.96429
      H   29    0.03627      0.00000     0.96373    0.00000     0.96373
      H   30    0.03589      0.00000     0.96411    0.00000     0.96411
      H   31    0.03730      0.00000     0.96270    0.00000     0.96270
 =======================================================================
   * Total *    0.00000     21.99953    66.00047    0.00000    88.00000

 Normal termination of Gaussian 09 at Sun May 24 02:08:48 2020.
