 Gaussian 09, Revision C.01,
 Gaussian 09:  EM64L-G09RevC.01 23-Sep-2011

 ------------------------
 # rhf/STO-3G nmr pop=nbo
 ------------------------

 99/9=1/99;
 -------
 comment
 -------
 Charge =  0 Multiplicity = 1

                         Standard orientation:
 ---------------------------------------------------------------------
 Center     Atomic      Atomic             Coordinates (Angstroms)
 Number     Number       Type             X           Y           Z
 ---------------------------------------------------------------------
      1          6           0       -3.674039   -0.405148   -0.016394
      2          6           0       -2.177344   -0.368290   -0.317180
      3          6           0       -0.133849    1.111058    0.194209
      4          6           0        0.076755   -1.411188    0.192893
      5          6           0        0.640039   -0.090754   -0.377609
      6          6           0       -1.407129   -1.345009    0.570587
      7          6           0       -1.624298    1.058168   -0.173975
      8          8           0        0.413313    2.333155   -0.291656
      9          6           0        2.186419    0.035334   -0.245240
     10          6           0        2.908888   -1.150712   -0.893921
     11          6           0        2.677325    0.216891    1.194034
     12          1           0       -4.217847    0.285920   -0.669020
     13          1           0       -4.078018   -1.409702   -0.180386
     14          1           0       -3.878724   -0.124638    1.022398
     15          1           0       -2.044567   -0.682915   -1.361351
     16          1           0       -0.037891    1.120827    1.286751
     17          1           0        0.634115   -1.738259    1.076893
     18          1           0        0.213817   -2.198615   -0.559447
     19          1           0        0.444194   -0.098091   -1.461186
     20          1           0       -1.497891   -1.035058    1.620016
     21          1           0       -1.838602   -2.351207    0.507486
     22          1           0       -2.179425    1.615346    0.592433
     23          1           0       -1.806585    1.604676   -1.108922
     24          1           0       -0.096342    3.060162    0.105075
     25          1           0        2.493866    0.929631   -0.803771
     26          1           0        2.736501   -2.082091   -0.345063
     27          1           0        2.574302   -1.293570   -1.926722
     28          1           0        3.990098   -0.975795   -0.917070
     29          1           0        2.424491   -0.639522    1.825707
     30          1           0        2.254214    1.116173    1.651057
     31          1           0        3.767177    0.329380    1.213949
 ---------------------------------------------------------------------

 SCF Done:  E(RHF) =  -459.613431047     A.U. after   10 cycles

      1  C    Isotropic =   221.1905   Anisotropy =    27.6137

      2  C    Isotropic =   216.7107   Anisotropy =     9.9248

      3  C    Isotropic =   189.2495   Anisotropy =    42.2961

      4  C    Isotropic =   219.5835   Anisotropy =    15.8472

      5  C    Isotropic =   211.2204   Anisotropy =    16.8721

      6  C    Isotropic =   217.3984   Anisotropy =    17.7994

      7  C    Isotropic =   213.5994   Anisotropy =    26.8590

      8  O    Isotropic =   356.0305   Anisotropy =    74.9746

      9  C    Isotropic =   214.6918   Anisotropy =    14.0555

     10  C    Isotropic =   221.5324   Anisotropy =    25.5047

     11  C    Isotropic =   224.5658   Anisotropy =    20.1498

     12  H    Isotropic =    32.4122   Anisotropy =    13.5840

     13  H    Isotropic =    32.5055   Anisotropy =    13.9649

     14  H    Isotropic =    32.7592   Anisotropy =    11.5593

     15  H    Isotropic =    32.5267   Anisotropy =    10.7408

     16  H    Isotropic =    32.0603   Anisotropy =     6.6799

     17  H    Isotropic =    32.5765   Anisotropy =    11.0849

     18  H    Isotropic =    32.3726   Anisotropy =    12.6318

     19  H    Isotropic =    32.2027   Anisotropy =     8.8650

     20  H    Isotropic =    32.8633   Anisotropy =    10.6785

     21  H    Isotropic =    32.4959   Anisotropy =    13.9570

     22  H    Isotropic =    32.7303   Anisotropy =    11.4965

     23  H    Isotropic =    32.1831   Anisotropy =    11.9809

     24  H    Isotropic =    34.8647   Anisotropy =    19.1026

     25  H    Isotropic =    31.7828   Anisotropy =    11.7485

     26  H    Isotropic =    32.5858   Anisotropy =     9.7883

     27  H    Isotropic =    32.4741   Anisotropy =    12.5533

     28  H    Isotropic =    32.4137   Anisotropy =    14.7797

     29  H    Isotropic =    32.7504   Anisotropy =    10.0180

     30  H    Isotropic =    32.3638   Anisotropy =    10.6817

     31  H    Isotropic =    32.5380   Anisotropy =    14.7618

 The electronic state is 1-A.
 Alpha  occ. eigenvalues --  -20.23758 -11.08374 -11.04773 -11.04112 -11.04045
 Alpha  occ. eigenvalues --  -11.03674 -11.03577 -11.03480 -11.03327 -11.02576
 Alpha  occ. eigenvalues --  -11.02442  -1.27820  -1.08158  -1.03440  -0.96610
 Alpha  occ. eigenvalues --   -0.94594  -0.88469  -0.87840  -0.80023  -0.78427
 Alpha  occ. eigenvalues --   -0.73375  -0.67388  -0.63775  -0.60077  -0.59531
 Alpha  occ. eigenvalues --   -0.57879  -0.56551  -0.53628  -0.52954  -0.52555
 Alpha  occ. eigenvalues --   -0.50171  -0.50018  -0.48923  -0.47910  -0.47096
 Alpha  occ. eigenvalues --   -0.45890  -0.43726  -0.42884  -0.42177  -0.41168
 Alpha  occ. eigenvalues --   -0.39116  -0.38209  -0.36237  -0.33138
 Alpha virt. eigenvalues --    0.53361   0.55009   0.57214   0.60033   0.61010
 Alpha virt. eigenvalues --    0.61676   0.62382   0.64475   0.66057   0.66129
 Alpha virt. eigenvalues --    0.69206   0.69887   0.70363   0.71441   0.71841

 Mulliken atomic charges:
              1
     1  C   -0.171192
     2  C   -0.023262
     3  C    0.077208
     4  C   -0.104150
     5  C   -0.032528
     6  C   -0.100658
     7  C   -0.116031
     8  O   -0.313063
     9  C   -0.018289
    10  C   -0.173405
    11  C   -0.175236
    12  H    0.054177
    13  H    0.054313
    14  H    0.052640
    15  H    0.048443
    16  H    0.038517
    17  H    0.050685
    18  H    0.050461
    19  H    0.049047
    20  H    0.045866
    21  H    0.051718
    22  H    0.044210
    23  H    0.055616
    24  H    0.176630
    25  H    0.060641
    26  H    0.052333
    27  H    0.052196
    28  H    0.053719
    29  H    0.049784
    30  H    0.055895
    31  H    0.053715
 Sum of Mulliken atomic charges =   0.00000

 Dipole moment (field-independent basis, Debye):
    X=             -1.0859    Y=             -0.1539    Z=              0.7224  Tot=              1.3133
 Quadrupole moment (field-independent basis, Debye-Ang):
   XX=            -68.6686   YY=            -66.5625   ZZ=            -67.4845
   XY=             -2.5662   XZ=              0.3227   YZ=              2.2439

 Summary of Natural Population Analysis:

                                       Natural Population
                Natural  -----------------------------------------------
    Atom  No    Charge         Core      Valence    Rydberg      Total
 -----------------------------------------------------------------------
      C    1   -0.12623      1.99997     4.12625    0.00000     6.12623
      C    2    0.01481      1.99997     3.98523    0.00000     5.98519
      C    3    0.14467      1.99989     3.85544    0.00000     5.85533
      C    4   -0.06611      1.99995     4.06616    0.00000     6.06611
      C    5   -0.01139      1.99995     4.01144    0.00000     6.01139
      C    6   -0.06333      1.99996     4.06336    0.00000     6.06333
      C    7   -0.09157      1.99996     4.09161    0.00000     6.09157
      O    8   -0.33396      1.99999     6.33397    0.00000     8.33396
      C    9    0.02161      1.99996     3.97843    0.00000     5.97839
      C   10   -0.12905      1.99997     4.12908    0.00000     6.12905
      C   11   -0.13126      1.99997     4.13129    0.00000     6.13126
      H   12    0.03688      0.00000     0.96312    0.00000     0.96312
      H   13    0.03698      0.00000     0.96302    0.00000     0.96302
      H   14    0.03538      0.00000     0.96462    0.00000     0.96462
      H   15    0.02432      0.00000     0.97568    0.00000     0.97568
      H   16    0.00291      0.00000     0.99709    0.00000     0.99709
      H   17    0.02931      0.00000     0.97069    0.00000     0.97069
      H   18    0.02945      0.00000     0.97055    0.00000     0.97055
      H   19    0.02361      0.00000     0.97639    0.00000     0.97639
      H   20    0.02528      0.00000     0.97472    0.00000     0.97472
      H   21    0.03114      0.00000     0.96886    0.00000     0.96886
      H   22    0.02394      0.00000     0.97606    0.00000     0.97606
      H   23    0.03496      0.00000     0.96504    0.00000     0.96504
      H   24    0.18926      0.00000     0.81074    0.00000     0.81074
      H   25    0.03418      0.00000     0.96582    0.00000     0.96582
      H   26    0.03485      0.00000     0.96515    0.00000     0.96515
      H   27    0.03494      0.00000     0.96506    0.00000     0.96506
      H   28    0.03653      0.00000     0.96347    0.00000     0.96347
      H   29    0.03268      0.00000     0.96732    0.00000     0.96732
      H   30    0.03833      0.00000     0.96167    0.00000     0.96167
      H   31    0.03687      0.00000     0.96313    0.00000     0.96313
 =======================================================================
   * Total *    0.00000     21.99955    66.00045    0.00000    88.00000

 Normal termination of Gaussian 09 at Tue Aug  3 16:36:34 2021.
