 Gaussian 09, Revision C.01,
 Gaussian 09:  EM64L-G09RevC.01 23-Sep-2011

 ------------------------
 # rhf/STO-3G nmr pop=nbo
 ------------------------

 99/9=1/99;
 -------
 comment
 -------
 Charge =  0 Multiplicity = 1

                         Standard orientation:
 ---------------------------------------------------------------------
 Center     Atomic      Atomic             Coordinates (Angstroms)
 Number     Number       Type             X           Y           Z
 ---------------------------------------------------------------------
      1          6           0       -2.746870   -0.521603    1.216707
      2          6           0       -2.356756   -0.315874   -0.249239
      3          6           0       -0.275228    1.131823    0.084433
      4          6           0       -0.024684   -1.368766   -0.204341
      5          6           0        0.625535    0.002588   -0.464835
      6          6           0       -1.448695   -1.441277   -0.759736
      7          6           0       -1.698249    1.048683   -0.476141
      8          8           0        0.267315    2.407655   -0.251244
      9          6           0        2.094895    0.107269    0.044416
     10          6           0        3.019142   -0.877139   -0.682017
     11          6           0        2.248689   -0.071057    1.557381
     12          1           0       -3.430230    0.268189    1.546654
     13          1           0       -3.261151   -1.479939    1.346124
     14          1           0       -1.881317   -0.514878    1.885369
     15          1           0       -3.286662   -0.342661   -0.832218
     16          1           0       -0.321050    1.086438    1.176785
     17          1           0       -0.045368   -1.585512    0.869097
     18          1           0        0.563592   -2.164099   -0.674594
     19          1           0        0.677569    0.139404   -1.555638
     20          1           0       -1.885596   -2.418012   -0.519837
     21          1           0       -1.399542   -1.384984   -1.855058
     22          1           0       -2.311970    1.849645   -0.044700
     23          1           0       -1.670583    1.258550   -1.554259
     24          1           0        0.331908    2.459033   -1.220157
     25          1           0        2.461517    1.112540   -0.201816
     26          1           0        2.809522   -1.914998   -0.405117
     27          1           0        2.916535   -0.782227   -1.767963
     28          1           0        4.066182   -0.675482   -0.430015
     29          1           0        1.941953   -1.069519    1.883430
     30          1           0        1.663648    0.667555    2.112161
     31          1           0        3.295848    0.061837    1.851935
 ---------------------------------------------------------------------

 SCF Done:  E(RHF) =  -459.621137792     A.U. after   10 cycles

      1  C    Isotropic =   222.8615   Anisotropy =    24.5660

      2  C    Isotropic =   216.3603   Anisotropy =     4.3813

      3  C    Isotropic =   190.8605   Anisotropy =    41.9406

      4  C    Isotropic =   221.1487   Anisotropy =    14.1521

      5  C    Isotropic =   207.5672   Anisotropy =    13.9607

      6  C    Isotropic =   216.7431   Anisotropy =    11.6379

      7  C    Isotropic =   214.5177   Anisotropy =    17.3440

      8  O    Isotropic =   351.0007   Anisotropy =    87.7145

      9  C    Isotropic =   214.7658   Anisotropy =    14.3178

     10  C    Isotropic =   221.3616   Anisotropy =    26.3655

     11  C    Isotropic =   224.4302   Anisotropy =    20.8220

     12  H    Isotropic =    32.5346   Anisotropy =    14.2482

     13  H    Isotropic =    32.6117   Anisotropy =    14.3493

     14  H    Isotropic =    32.6174   Anisotropy =     7.9047

     15  H    Isotropic =    32.4341   Anisotropy =    15.3472

     16  H    Isotropic =    31.6290   Anisotropy =     6.6664

     17  H    Isotropic =    32.8494   Anisotropy =     9.0243

     18  H    Isotropic =    32.5958   Anisotropy =    12.9366

     19  H    Isotropic =    33.2660   Anisotropy =     8.6992

     20  H    Isotropic =    32.5262   Anisotropy =    14.3925

     21  H    Isotropic =    32.6608   Anisotropy =    13.0400

     22  H    Isotropic =    32.0504   Anisotropy =    13.7400

     23  H    Isotropic =    32.9581   Anisotropy =    11.8235

     24  H    Isotropic =    35.4481   Anisotropy =    15.8242

     25  H    Isotropic =    32.0414   Anisotropy =    11.3823

     26  H    Isotropic =    32.5691   Anisotropy =     9.9981

     27  H    Isotropic =    32.6505   Anisotropy =    12.4829

     28  H    Isotropic =    32.4105   Anisotropy =    14.6959

     29  H    Isotropic =    32.7763   Anisotropy =     9.9538

     30  H    Isotropic =    32.3570   Anisotropy =    10.6367

     31  H    Isotropic =    32.5166   Anisotropy =    14.8599

 The electronic state is 1-A.
 Alpha  occ. eigenvalues --  -20.23823 -11.08449 -11.04885 -11.04496 -11.04359
 Alpha  occ. eigenvalues --  -11.03855 -11.03806 -11.03714 -11.03239 -11.02991
 Alpha  occ. eigenvalues --  -11.02771  -1.27861  -1.08385  -1.03759  -0.96654
 Alpha  occ. eigenvalues --   -0.94686  -0.88817  -0.88459  -0.80698  -0.78543
 Alpha  occ. eigenvalues --   -0.72413  -0.70201  -0.62687  -0.59376  -0.58832
 Alpha  occ. eigenvalues --   -0.57509  -0.56705  -0.55026  -0.53240  -0.52841
 Alpha  occ. eigenvalues --   -0.51774  -0.50381  -0.49291  -0.48340  -0.46549
 Alpha  occ. eigenvalues --   -0.45706  -0.44456  -0.42554  -0.42480  -0.41357
 Alpha  occ. eigenvalues --   -0.40368  -0.39555  -0.35990  -0.32599
 Alpha virt. eigenvalues --    0.53638   0.54868   0.57870   0.60161   0.60655
 Alpha virt. eigenvalues --    0.61416   0.62906   0.65710   0.65952   0.66200
 Alpha virt. eigenvalues --    0.66878   0.69034   0.69901   0.71084   0.71844

 Mulliken atomic charges:
              1
     1  C   -0.174897
     2  C   -0.024380
     3  C    0.074111
     4  C   -0.104941
     5  C   -0.039317
     6  C   -0.099905
     7  C   -0.112519
     8  O   -0.311307
     9  C   -0.020824
    10  C   -0.173366
    11  C   -0.175597
    12  H    0.055031
    13  H    0.054174
    14  H    0.053347
    15  H    0.049775
    16  H    0.059722
    17  H    0.050212
    18  H    0.053240
    19  H    0.037460
    20  H    0.051239
    21  H    0.046374
    22  H    0.057262
    23  H    0.042374
    24  H    0.175057
    25  H    0.055676
    26  H    0.053057
    27  H    0.050955
    28  H    0.054492
    29  H    0.051760
    30  H    0.056899
    31  H    0.054835
 Sum of Mulliken atomic charges =   0.00000

 Dipole moment (field-independent basis, Debye):
    X=             -0.4027    Y=             -1.0648    Z=             -0.9514  Tot=              1.4836
 Quadrupole moment (field-independent basis, Debye-Ang):
   XX=            -67.6251   YY=            -71.9095   ZZ=            -65.7539
   XY=             -0.5852   XZ=             -0.3078   YZ=             -2.5481

 Summary of Natural Population Analysis:

                                       Natural Population
                Natural  -----------------------------------------------
    Atom  No    Charge         Core      Valence    Rydberg      Total
 -----------------------------------------------------------------------
      C    1   -0.13020      1.99997     4.13023    0.00000     6.13020
      C    2    0.01418      1.99997     3.98585    0.00000     5.98582
      C    3    0.13987      1.99989     3.86024    0.00000     5.86013
      C    4   -0.06749      1.99996     4.06753    0.00000     6.06749
      C    5   -0.01765      1.99996     4.01769    0.00000     6.01765
      C    6   -0.06202      1.99996     4.06206    0.00000     6.06202
      C    7   -0.08896      1.99996     4.08899    0.00000     6.08896
      O    8   -0.33170      1.99999     6.33170    0.00000     8.33170
      C    9    0.01937      1.99996     3.98067    0.00000     5.98063
      C   10   -0.12891      1.99997     4.12894    0.00000     6.12891
      C   11   -0.13181      1.99997     4.13184    0.00000     6.13181
      H   12    0.03776      0.00000     0.96224    0.00000     0.96224
      H   13    0.03701      0.00000     0.96299    0.00000     0.96299
      H   14    0.03598      0.00000     0.96402    0.00000     0.96402
      H   15    0.02555      0.00000     0.97445    0.00000     0.97445
      H   16    0.02429      0.00000     0.97571    0.00000     0.97571
      H   17    0.02907      0.00000     0.97093    0.00000     0.97093
      H   18    0.03223      0.00000     0.96777    0.00000     0.96777
      H   19    0.01313      0.00000     0.98687    0.00000     0.98687
      H   20    0.03040      0.00000     0.96960    0.00000     0.96960
      H   21    0.02565      0.00000     0.97435    0.00000     0.97435
      H   22    0.03625      0.00000     0.96375    0.00000     0.96375
      H   23    0.02275      0.00000     0.97725    0.00000     0.97725
      H   24    0.18734      0.00000     0.81266    0.00000     0.81266
      H   25    0.02964      0.00000     0.97036    0.00000     0.97036
      H   26    0.03554      0.00000     0.96446    0.00000     0.96446
      H   27    0.03377      0.00000     0.96623    0.00000     0.96623
      H   28    0.03723      0.00000     0.96277    0.00000     0.96277
      H   29    0.03458      0.00000     0.96542    0.00000     0.96542
      H   30    0.03922      0.00000     0.96078    0.00000     0.96078
      H   31    0.03792      0.00000     0.96208    0.00000     0.96208
 =======================================================================
   * Total *    0.00000     21.99955    66.00045    0.00000    88.00000

 Normal termination of Gaussian 09 at Tue Aug  3 16:36:21 2021.
