 Gaussian 09, Revision C.01,
 Gaussian 09:  EM64L-G09RevC.01 23-Sep-2011

 ------------------------
 # rhf/STO-3G nmr pop=nbo
 ------------------------

 99/9=1/99;
 -------
 comment
 -------
 Charge =  0 Multiplicity = 1

                         Standard orientation:
 ---------------------------------------------------------------------
 Center     Atomic      Atomic             Coordinates (Angstroms)
 Number     Number       Type             X           Y           Z
 ---------------------------------------------------------------------
      1          6           0       -3.654479    0.016822    0.168635
      2          6           0       -2.181947    0.096333   -0.229356
      3          6           0        0.118109    0.913619    0.444983
      4          6           0       -0.178294   -1.506374   -0.283256
      5          6           0        0.660751   -0.228320   -0.452609
      6          6           0       -1.649879   -1.285493   -0.642062
      7          6           0       -1.334383    0.701363    0.895736
      8          8           0        0.146617    2.142829   -0.289052
      9          6           0        2.180191   -0.529399   -0.268218
     10          6           0        2.550659   -1.089298    1.109617
     11          6           0        3.061663    0.682678   -0.580820
     12          1           0       -4.254568   -0.400641   -0.646767
     13          1           0       -3.794302   -0.614732    1.052530
     14          1           0       -4.048433    1.012207    0.399321
     15          1           0       -2.115559    0.760484   -1.101861
     16          1           0        0.732340    1.065235    1.337311
     17          1           0       -0.125924   -1.855194    0.755264
     18          1           0        0.222011   -2.316321   -0.904719
     19          1           0        0.545181    0.086906   -1.500804
     20          1           0       -2.239373   -2.088803   -0.182715
     21          1           0       -1.780704   -1.398709   -1.725868
     22          1           0       -1.354679    0.034786    1.767399
     23          1           0       -1.768337    1.658461    1.211049
     24          1           0        1.069248    2.339006   -0.517052
     25          1           0        2.442324   -1.302006   -1.004649
     26          1           0        2.310223   -0.390547    1.915914
     27          1           0        2.038081   -2.034303    1.310616
     28          1           0        3.626057   -1.293872    1.161939
     29          1           0        2.962660    1.463786    0.179428
     30          1           0        2.809395    1.109962   -1.556717
     31          1           0        4.117088    0.390073   -0.613104
 ---------------------------------------------------------------------

 SCF Done:  E(RHF) =  -459.612750170     A.U. after   10 cycles

      1  C    Isotropic =   220.9021   Anisotropy =    27.7375

      2  C    Isotropic =   217.1157   Anisotropy =     8.4534

      3  C    Isotropic =   189.1442   Anisotropy =    37.0467

      4  C    Isotropic =   217.8440   Anisotropy =    16.1203

      5  C    Isotropic =   208.4283   Anisotropy =     9.1279

      6  C    Isotropic =   216.4883   Anisotropy =    18.8314

      7  C    Isotropic =   215.3623   Anisotropy =    18.7202

      8  O    Isotropic =   351.3841   Anisotropy =    65.0424

      9  C    Isotropic =   212.9134   Anisotropy =    16.5885

     10  C    Isotropic =   224.6588   Anisotropy =    20.6896

     11  C    Isotropic =   221.8179   Anisotropy =    24.2506

     12  H    Isotropic =    32.3222   Anisotropy =    13.8370

     13  H    Isotropic =    32.6752   Anisotropy =    11.6500

     14  H    Isotropic =    32.3835   Anisotropy =    13.8466

     15  H    Isotropic =    32.1710   Anisotropy =    10.4808

     16  H    Isotropic =    31.9756   Anisotropy =     8.2042

     17  H    Isotropic =    32.7210   Anisotropy =     9.5838

     18  H    Isotropic =    32.5746   Anisotropy =    13.0426

     19  H    Isotropic =    32.4927   Anisotropy =     8.7258

     20  H    Isotropic =    32.5591   Anisotropy =    12.9995

     21  H    Isotropic =    32.1789   Anisotropy =    13.4608

     22  H    Isotropic =    32.6681   Anisotropy =    10.3069

     23  H    Isotropic =    32.0046   Anisotropy =    13.1112

     24  H    Isotropic =    34.6456   Anisotropy =    16.4377

     25  H    Isotropic =    32.4809   Anisotropy =    12.3741

     26  H    Isotropic =    32.8725   Anisotropy =     9.7382

     27  H    Isotropic =    32.6071   Anisotropy =    11.3542

     28  H    Isotropic =    32.6565   Anisotropy =    14.5419

     29  H    Isotropic =    33.0376   Anisotropy =     9.4241

     30  H    Isotropic =    32.7886   Anisotropy =    12.0552

     31  H    Isotropic =    32.4425   Anisotropy =    14.6154

 The electronic state is 1-A.
 Alpha  occ. eigenvalues --  -20.23033 -11.08234 -11.05184 -11.04283 -11.03966
 Alpha  occ. eigenvalues --  -11.03925 -11.03574 -11.03479 -11.03417 -11.03159
 Alpha  occ. eigenvalues --  -11.02744  -1.27300  -1.07981  -1.03957  -0.96901
 Alpha  occ. eigenvalues --   -0.94365  -0.89648  -0.87729  -0.79574  -0.78566
 Alpha  occ. eigenvalues --   -0.73567  -0.67694  -0.64509  -0.61127  -0.58273
 Alpha  occ. eigenvalues --   -0.57764  -0.55669  -0.54517  -0.53282  -0.52906
 Alpha  occ. eigenvalues --   -0.51415  -0.50002  -0.48698  -0.47867  -0.47519
 Alpha  occ. eigenvalues --   -0.46012  -0.43903  -0.43325  -0.42536  -0.40858
 Alpha  occ. eigenvalues --   -0.39429  -0.38398  -0.36017  -0.32876
 Alpha virt. eigenvalues --    0.53031   0.56391   0.57041   0.58612   0.61261
 Alpha virt. eigenvalues --    0.61678   0.62475   0.64080   0.65317   0.66180
 Alpha virt. eigenvalues --    0.66835   0.69437   0.70133   0.70762   0.72390

 Mulliken atomic charges:
              1
     1  C   -0.170893
     2  C   -0.024501
     3  C    0.073212
     4  C   -0.100682
     5  C   -0.043779
     6  C   -0.101570
     7  C   -0.103235
     8  O   -0.317509
     9  C   -0.020818
    10  C   -0.176626
    11  C   -0.178264
    12  H    0.053509
    13  H    0.051036
    14  H    0.054359
    15  H    0.054911
    16  H    0.041638
    17  H    0.047267
    18  H    0.050048
    19  H    0.052021
    20  H    0.048573
    21  H    0.047682
    22  H    0.049173
    23  H    0.062788
    24  H    0.177506
    25  H    0.049100
    26  H    0.052866
    27  H    0.056476
    28  H    0.055157
    29  H    0.049155
    30  H    0.052979
    31  H    0.058419
 Sum of Mulliken atomic charges =   0.00000

 Dipole moment (field-independent basis, Debye):
    X=              1.1173    Y=             -0.9162    Z=              0.1889  Tot=              1.4572
 Quadrupole moment (field-independent basis, Debye-Ang):
   XX=            -66.4340   YY=            -70.3687   ZZ=            -66.9847
   XY=              2.1919   XZ=             -0.7770   YZ=              0.4677

 Summary of Natural Population Analysis:

                                       Natural Population
                Natural  -----------------------------------------------
    Atom  No    Charge         Core      Valence    Rydberg      Total
 -----------------------------------------------------------------------
      C    1   -0.12571      1.99998     4.12573    0.00000     6.12571
      C    2    0.01230      1.99997     3.98773    0.00000     5.98770
      C    3    0.14267      1.99988     3.85744    0.00000     5.85733
      C    4   -0.06293      1.99996     4.06297    0.00000     6.06293
      C    5   -0.02281      1.99995     4.02286    0.00000     6.02281
      C    6   -0.06409      1.99996     4.06413    0.00000     6.06409
      C    7   -0.07875      1.99996     4.07879    0.00000     6.07875
      O    8   -0.33921      1.99999     6.33922    0.00000     8.33921
      C    9    0.01999      1.99996     3.98005    0.00000     5.98001
      C   10   -0.13292      1.99997     4.13295    0.00000     6.13292
      C   11   -0.13372      1.99997     4.13376    0.00000     6.13372
      H   12    0.03629      0.00000     0.96371    0.00000     0.96371
      H   13    0.03386      0.00000     0.96614    0.00000     0.96614
      H   14    0.03694      0.00000     0.96306    0.00000     0.96306
      H   15    0.03005      0.00000     0.96995    0.00000     0.96995
      H   16    0.00547      0.00000     0.99453    0.00000     0.99453
      H   17    0.02627      0.00000     0.97373    0.00000     0.97373
      H   18    0.02929      0.00000     0.97071    0.00000     0.97071
      H   19    0.02689      0.00000     0.97311    0.00000     0.97311
      H   20    0.02785      0.00000     0.97215    0.00000     0.97215
      H   21    0.02694      0.00000     0.97306    0.00000     0.97306
      H   22    0.02882      0.00000     0.97118    0.00000     0.97118
      H   23    0.04150      0.00000     0.95850    0.00000     0.95850
      H   24    0.18908      0.00000     0.81092    0.00000     0.81092
      H   25    0.02378      0.00000     0.97622    0.00000     0.97622
      H   26    0.03553      0.00000     0.96447    0.00000     0.96447
      H   27    0.03891      0.00000     0.96109    0.00000     0.96109
      H   28    0.03816      0.00000     0.96184    0.00000     0.96184
      H   29    0.03239      0.00000     0.96761    0.00000     0.96761
      H   30    0.03588      0.00000     0.96412    0.00000     0.96412
      H   31    0.04127      0.00000     0.95873    0.00000     0.95873
 =======================================================================
   * Total *    0.00000     21.99955    66.00045    0.00000    88.00000

 Normal termination of Gaussian 09 at Tue Aug  3 16:36:34 2021.
