 Gaussian 09, Revision C.01,
 Gaussian 09:  EM64L-G09RevC.01 23-Sep-2011

 ------------------------
 # rhf/STO-3G nmr pop=nbo
 ------------------------

 99/9=1/99;
 -------
 comment
 -------
 Charge =  0 Multiplicity = 1

                         Standard orientation:
 ---------------------------------------------------------------------
 Center     Atomic      Atomic             Coordinates (Angstroms)
 Number     Number       Type             X           Y           Z
 ---------------------------------------------------------------------
      1          6           0        3.101455   -1.217786   -0.259119
      2          6           0        1.971348   -0.304413    0.214847
      3          6           0        0.173174    1.324015   -0.543881
      4          6           0       -0.254937   -0.235486    1.435266
      5          6           0       -0.895534    0.631628    0.332063
      6          6           0        0.916568   -1.105154    0.981078
      7          6           0        1.336548    0.429213   -0.972394
      8          8           0        0.712310    2.411085    0.221801
      9          6           0       -2.024115   -0.058060   -0.494397
     10          6           0       -3.305000   -0.196049    0.344517
     11          6           0       -1.690942   -1.419897   -1.098796
     12          1           0        2.731682   -1.986559   -0.946155
     13          1           0        3.873680   -0.641608   -0.779601
     14          1           0        3.574995   -1.721905    0.589917
     15          1           0        2.407355    0.437619    0.896632
     16          1           0       -0.294225    1.772660   -1.427476
     17          1           0       -1.006140   -0.863587    1.925532
     18          1           0        0.120694    0.439485    2.216775
     19          1           0       -1.402039    1.446591    0.872726
     20          1           0        0.558464   -1.934524    0.363564
     21          1           0        1.376214   -1.564272    1.865375
     22          1           0        1.002694   -0.290511   -1.725253
     23          1           0        2.107739    1.044454   -1.453907
     24          1           0        1.338728    2.888956   -0.348134
     25          1           0       -2.276696    0.612490   -1.326920
     26          1           0       -3.170632   -0.886690    1.182702
     27          1           0       -3.616563    0.773512    0.747152
     28          1           0       -4.129280   -0.574838   -0.269954
     29          1           0       -1.542976   -2.181240   -0.327335
     30          1           0       -0.805764   -1.382233   -1.734277
     31          1           0       -2.517802   -1.764551   -1.730885
 ---------------------------------------------------------------------

 SCF Done:  E(RHF) =  -459.614559026     A.U. after   10 cycles

      1  C    Isotropic =   220.9087   Anisotropy =    28.4152

      2  C    Isotropic =   216.6141   Anisotropy =     6.7353

      3  C    Isotropic =   186.5886   Anisotropy =    38.1518

      4  C    Isotropic =   219.9138   Anisotropy =    12.4451

      5  C    Isotropic =   211.0893   Anisotropy =    18.3984

      6  C    Isotropic =   217.4167   Anisotropy =    16.2001

      7  C    Isotropic =   215.0359   Anisotropy =    17.4397

      8  O    Isotropic =   347.9677   Anisotropy =    98.1006

      9  C    Isotropic =   212.0182   Anisotropy =    19.0784

     10  C    Isotropic =   220.0114   Anisotropy =    29.3768

     11  C    Isotropic =   223.0549   Anisotropy =    18.3469

     12  H    Isotropic =    32.7395   Anisotropy =    10.9874

     13  H    Isotropic =    32.5149   Anisotropy =    13.8421

     14  H    Isotropic =    32.4196   Anisotropy =    14.0231

     15  H    Isotropic =    32.3972   Anisotropy =    11.3240

     16  H    Isotropic =    32.0062   Anisotropy =    10.1633

     17  H    Isotropic =    32.4456   Anisotropy =    12.6389

     18  H    Isotropic =    32.1402   Anisotropy =    13.6593

     19  H    Isotropic =    31.9363   Anisotropy =    11.8923

     20  H    Isotropic =    32.9393   Anisotropy =     9.2184

     21  H    Isotropic =    32.4805   Anisotropy =    14.4381

     22  H    Isotropic =    32.7829   Anisotropy =     9.3425

     23  H    Isotropic =    32.8760   Anisotropy =    13.2147

     24  H    Isotropic =    35.0307   Anisotropy =    19.4251

     25  H    Isotropic =    32.5918   Anisotropy =    11.6528

     26  H    Isotropic =    32.4166   Anisotropy =    10.0936

     27  H    Isotropic =    32.4210   Anisotropy =    13.2454

     28  H    Isotropic =    32.4305   Anisotropy =    14.4308

     29  H    Isotropic =    32.7650   Anisotropy =     8.6532

     30  H    Isotropic =    32.8281   Anisotropy =     9.7030

     31  H    Isotropic =    32.5849   Anisotropy =    14.7869

 The electronic state is 1-A.
 Alpha  occ. eigenvalues --  -20.23276 -11.08385 -11.04769 -11.04313 -11.04145
 Alpha  occ. eigenvalues --  -11.03752 -11.03160 -11.03157 -11.03073 -11.03017
 Alpha  occ. eigenvalues --  -11.02910  -1.27445  -1.07742  -1.03566  -0.96672
 Alpha  occ. eigenvalues --   -0.94850  -0.89272  -0.87866  -0.79890  -0.77524
 Alpha  occ. eigenvalues --   -0.73817  -0.68402  -0.61705  -0.60710  -0.59146
 Alpha  occ. eigenvalues --   -0.57944  -0.56056  -0.54158  -0.54079  -0.52478
 Alpha  occ. eigenvalues --   -0.51110  -0.50157  -0.49309  -0.48023  -0.46861
 Alpha  occ. eigenvalues --   -0.46260  -0.42971  -0.42779  -0.42083  -0.40201
 Alpha  occ. eigenvalues --   -0.38940  -0.38497  -0.36586  -0.33278
 Alpha virt. eigenvalues --    0.52241   0.56395   0.58598   0.59215   0.60282
 Alpha virt. eigenvalues --    0.61797   0.62299   0.64441   0.64602   0.66268
 Alpha virt. eigenvalues --    0.68759   0.70321   0.70989   0.71758   0.72095

 Mulliken atomic charges:
              1
     1  C   -0.172041
     2  C   -0.022702
     3  C    0.075520
     4  C   -0.102005
     5  C   -0.035306
     6  C   -0.101617
     7  C   -0.113493
     8  O   -0.314965
     9  C   -0.020265
    10  C   -0.171933
    11  C   -0.176888
    12  H    0.051919
    13  H    0.052104
    14  H    0.054348
    15  H    0.053556
    16  H    0.040374
    17  H    0.050390
    18  H    0.055961
    19  H    0.059892
    20  H    0.048238
    21  H    0.048996
    22  H    0.051709
    23  H    0.044600
    24  H    0.173128
    25  H    0.047239
    26  H    0.053050
    27  H    0.053577
    28  H    0.053077
    29  H    0.055629
    30  H    0.053430
    31  H    0.054478
 Sum of Mulliken atomic charges =   0.00000

 Dipole moment (field-independent basis, Debye):
    X=              0.2456    Y=             -0.3421    Z=             -1.1757  Tot=              1.2489
 Quadrupole moment (field-independent basis, Debye-Ang):
   XX=            -66.7016   YY=            -68.5416   ZZ=            -67.2504
   XY=              1.7328   XZ=             -0.7158   YZ=             -3.3221

 Summary of Natural Population Analysis:

                                       Natural Population
                Natural  -----------------------------------------------
    Atom  No    Charge         Core      Valence    Rydberg      Total
 -----------------------------------------------------------------------
      C    1   -0.12691      1.99997     4.12694    0.00000     6.12691
      C    2    0.01489      1.99997     3.98514    0.00000     5.98511
      C    3    0.14470      1.99989     3.85541    0.00000     5.85530
      C    4   -0.06493      1.99995     4.06498    0.00000     6.06493
      C    5   -0.01400      1.99995     4.01406    0.00000     6.01400
      C    6   -0.06494      1.99996     4.06497    0.00000     6.06494
      C    7   -0.08975      1.99996     4.08979    0.00000     6.08975
      O    8   -0.33660      1.99999     6.33661    0.00000     8.33660
      C    9    0.02119      1.99996     3.97885    0.00000     5.97881
      C   10   -0.12713      1.99997     4.12716    0.00000     6.12713
      C   11   -0.13354      1.99997     4.13358    0.00000     6.13354
      H   12    0.03470      0.00000     0.96530    0.00000     0.96530
      H   13    0.03494      0.00000     0.96506    0.00000     0.96506
      H   14    0.03706      0.00000     0.96294    0.00000     0.96294
      H   15    0.02886      0.00000     0.97114    0.00000     0.97114
      H   16    0.00453      0.00000     0.99547    0.00000     0.99547
      H   17    0.02945      0.00000     0.97055    0.00000     0.97055
      H   18    0.03449      0.00000     0.96551    0.00000     0.96551
      H   19    0.03405      0.00000     0.96595    0.00000     0.96595
      H   20    0.02705      0.00000     0.97295    0.00000     0.97295
      H   21    0.02883      0.00000     0.97117    0.00000     0.97117
      H   22    0.03132      0.00000     0.96868    0.00000     0.96868
      H   23    0.02535      0.00000     0.97465    0.00000     0.97465
      H   24    0.18543      0.00000     0.81457    0.00000     0.81457
      H   25    0.02192      0.00000     0.97808    0.00000     0.97808
      H   26    0.03528      0.00000     0.96472    0.00000     0.96472
      H   27    0.03589      0.00000     0.96411    0.00000     0.96411
      H   28    0.03567      0.00000     0.96433    0.00000     0.96433
      H   29    0.03850      0.00000     0.96150    0.00000     0.96150
      H   30    0.03586      0.00000     0.96414    0.00000     0.96414
      H   31    0.03783      0.00000     0.96217    0.00000     0.96217
 =======================================================================
   * Total *    0.00000     21.99954    66.00046    0.00000    88.00000

 Normal termination of Gaussian 09 at Tue Aug  3 16:36:30 2021.
