 Gaussian 09, Revision C.01,
 Gaussian 09:  EM64L-G09RevC.01 23-Sep-2011

 ------------------------
 # rhf/STO-3G nmr pop=nbo
 ------------------------

 99/9=1/99;
 -------
 comment
 -------
 Charge =  0 Multiplicity = 1

                         Standard orientation:
 ---------------------------------------------------------------------
 Center     Atomic      Atomic             Coordinates (Angstroms)
 Number     Number       Type             X           Y           Z
 ---------------------------------------------------------------------
      1          6           0       -3.178657   -0.139670    1.079860
      2          6           0       -2.317414   -0.395546   -0.157548
      3          6           0       -0.213265    1.031199   -0.077692
      4          6           0       -0.090888   -1.416162   -0.789508
      5          6           0        0.721721   -0.123266   -0.528299
      6          6           0       -1.311211   -1.523403    0.119138
      7          6           0       -1.627983    0.889124   -0.639573
      8          8           0        0.329385    2.270864   -0.531047
      9          6           0        1.900282   -0.357282    0.475923
     10          6           0        2.631299    0.936844    0.860250
     11          6           0        2.945937   -1.336421   -0.081274
     12          1           0       -3.680304   -1.059088    1.399903
     13          1           0       -2.576035    0.228255    1.917060
     14          1           0       -3.952184    0.605811    0.867174
     15          1           0       -2.992871   -0.723581   -0.958932
     16          1           0       -0.266749    1.072131    1.016955
     17          1           0        0.516533   -2.317262   -0.680923
     18          1           0       -0.430734   -1.413326   -1.833920
     19          1           0        1.184516    0.164340   -1.483665
     20          1           0       -0.982162   -1.505841    1.165868
     21          1           0       -1.804195   -2.491065   -0.033762
     22          1           0       -2.228857    1.774673   -0.397478
     23          1           0       -1.569583    0.881706   -1.736927
     24          1           0       -0.247081    2.981463   -0.202049
     25          1           0        1.491779   -0.791046    1.397873
     26          1           0        3.000047    1.461876   -0.027304
     27          1           0        1.983475    1.615613    1.422426
     28          1           0        3.491487    0.722264    1.504324
     29          1           0        2.541394   -2.342509   -0.214677
     30          1           0        3.794729   -1.431174    0.605372
     31          1           0        3.332798   -0.992655   -1.046602
 ---------------------------------------------------------------------

 SCF Done:  E(RHF) =  -459.611752977     A.U. after   10 cycles

      1  C    Isotropic =   221.0639   Anisotropy =    26.4933

      2  C    Isotropic =   216.3243   Anisotropy =     9.4945

      3  C    Isotropic =   188.1140   Anisotropy =    40.7676

      4  C    Isotropic =   218.6759   Anisotropy =    15.1346

      5  C    Isotropic =   208.0177   Anisotropy =    15.6999

      6  C    Isotropic =   217.6908   Anisotropy =    18.7502

      7  C    Isotropic =   214.9854   Anisotropy =    18.0086

      8  O    Isotropic =   353.0533   Anisotropy =    92.5151

      9  C    Isotropic =   212.5923   Anisotropy =    15.8655

     10  C    Isotropic =   221.1693   Anisotropy =    23.6848

     11  C    Isotropic =   221.1220   Anisotropy =    27.2335

     12  H    Isotropic =    32.4650   Anisotropy =    13.8704

     13  H    Isotropic =    32.7296   Anisotropy =     9.5267

     14  H    Isotropic =    32.5976   Anisotropy =    14.1438

     15  H    Isotropic =    32.3685   Anisotropy =    14.1282

     16  H    Isotropic =    32.1722   Anisotropy =     5.1278

     17  H    Isotropic =    32.4318   Anisotropy =    12.9794

     18  H    Isotropic =    32.3849   Anisotropy =    12.7191

     19  H    Isotropic =    32.1552   Anisotropy =    10.1018

     20  H    Isotropic =    32.9823   Anisotropy =     8.6746

     21  H    Isotropic =    32.3996   Anisotropy =    14.8117

     22  H    Isotropic =    32.9474   Anisotropy =    12.3630

     23  H    Isotropic =    32.0539   Anisotropy =    11.7425

     24  H    Isotropic =    35.0286   Anisotropy =    19.1484

     25  H    Isotropic =    32.7277   Anisotropy =     8.9141

     26  H    Isotropic =    32.2021   Anisotropy =    10.9061

     27  H    Isotropic =    32.2082   Anisotropy =     9.8666

     28  H    Isotropic =    32.5311   Anisotropy =    14.3273

     29  H    Isotropic =    32.3497   Anisotropy =    11.3563

     30  H    Isotropic =    32.4757   Anisotropy =    14.1828

     31  H    Isotropic =    32.5407   Anisotropy =    11.7918

 The electronic state is 1-A.
 Alpha  occ. eigenvalues --  -20.23635 -11.08460 -11.04721 -11.04292 -11.04215
 Alpha  occ. eigenvalues --  -11.03675 -11.03602 -11.03525 -11.03360 -11.02643
 Alpha  occ. eigenvalues --  -11.02167  -1.27686  -1.08174  -1.03356  -0.96711
 Alpha  occ. eigenvalues --   -0.94459  -0.88239  -0.87866  -0.80109  -0.77857
 Alpha  occ. eigenvalues --   -0.73568  -0.68555  -0.63160  -0.61252  -0.58439
 Alpha  occ. eigenvalues --   -0.56835  -0.56249  -0.54533  -0.54110  -0.51763
 Alpha  occ. eigenvalues --   -0.50288  -0.49548  -0.49284  -0.47848  -0.46516
 Alpha  occ. eigenvalues --   -0.46015  -0.44065  -0.42358  -0.42273  -0.40723
 Alpha  occ. eigenvalues --   -0.39023  -0.38860  -0.36677  -0.32901
 Alpha virt. eigenvalues --    0.53058   0.55008   0.56953   0.59666   0.61338
 Alpha virt. eigenvalues --    0.61795   0.62338   0.64648   0.65113   0.67213
 Alpha virt. eigenvalues --    0.67920   0.69596   0.70227   0.71375   0.71691

 Mulliken atomic charges:
              1
     1  C   -0.171458
     2  C   -0.024688
     3  C    0.077328
     4  C   -0.103557
     5  C   -0.032481
     6  C   -0.101371
     7  C   -0.115119
     8  O   -0.311915
     9  C   -0.018160
    10  C   -0.171854
    11  C   -0.173632
    12  H    0.054581
    13  H    0.050820
    14  H    0.052582
    15  H    0.048635
    16  H    0.038310
    17  H    0.055246
    18  H    0.048890
    19  H    0.056990
    20  H    0.047618
    21  H    0.051229
    22  H    0.046238
    23  H    0.054359
    24  H    0.175128
    25  H    0.041729
    26  H    0.060129
    27  H    0.054752
    28  H    0.050349
    29  H    0.051942
    30  H    0.053755
    31  H    0.053623
 Sum of Mulliken atomic charges =   0.00000

 Dipole moment (field-independent basis, Debye):
    X=             -1.1628    Y=             -0.2902    Z=              0.6289  Tot=              1.3534
 Quadrupole moment (field-independent basis, Debye-Ang):
   XX=            -68.2700   YY=            -66.9182   ZZ=            -67.8714
   XY=             -2.8874   XZ=              0.7904   YZ=              1.8883

 Summary of Natural Population Analysis:

                                       Natural Population
                Natural  -----------------------------------------------
    Atom  No    Charge         Core      Valence    Rydberg      Total
 -----------------------------------------------------------------------
      C    1   -0.12631      1.99998     4.12634    0.00000     6.12631
      C    2    0.01395      1.99997     3.98608    0.00000     5.98605
      C    3    0.14544      1.99989     3.85468    0.00000     5.85456
      C    4   -0.06636      1.99995     4.06641    0.00000     6.06636
      C    5   -0.00910      1.99995     4.00915    0.00000     6.00910
      C    6   -0.06402      1.99996     4.06406    0.00000     6.06402
      C    7   -0.09240      1.99996     4.09244    0.00000     6.09240
      O    8   -0.33316      1.99999     6.33317    0.00000     8.33316
      C    9    0.02389      1.99996     3.97615    0.00000     5.97611
      C   10   -0.12837      1.99997     4.12841    0.00000     6.12837
      C   11   -0.12921      1.99997     4.12924    0.00000     6.12921
      H   12    0.03718      0.00000     0.96282    0.00000     0.96282
      H   13    0.03363      0.00000     0.96637    0.00000     0.96637
      H   14    0.03524      0.00000     0.96476    0.00000     0.96476
      H   15    0.02433      0.00000     0.97567    0.00000     0.97567
      H   16    0.00268      0.00000     0.99732    0.00000     0.99732
      H   17    0.03349      0.00000     0.96651    0.00000     0.96651
      H   18    0.02805      0.00000     0.97195    0.00000     0.97195
      H   19    0.03029      0.00000     0.96971    0.00000     0.96971
      H   20    0.02691      0.00000     0.97309    0.00000     0.97309
      H   21    0.03071      0.00000     0.96929    0.00000     0.96929
      H   22    0.02672      0.00000     0.97328    0.00000     0.97328
      H   23    0.03374      0.00000     0.96626    0.00000     0.96626
      H   24    0.18753      0.00000     0.81247    0.00000     0.81247
      H   25    0.01601      0.00000     0.98399    0.00000     0.98399
      H   26    0.04206      0.00000     0.95794    0.00000     0.95794
      H   27    0.03694      0.00000     0.96306    0.00000     0.96306
      H   28    0.03326      0.00000     0.96674    0.00000     0.96674
      H   29    0.03423      0.00000     0.96577    0.00000     0.96577
      H   30    0.03653      0.00000     0.96347    0.00000     0.96347
      H   31    0.03613      0.00000     0.96387    0.00000     0.96387
 =======================================================================
   * Total *    0.00000     21.99954    66.00046    0.00000    88.00000

 Normal termination of Gaussian 09 at Tue Aug  3 16:36:55 2021.
