 Gaussian 09, Revision C.01,
 Gaussian 09:  EM64L-G09RevC.01 23-Sep-2011

 ------------------------
 # rhf/STO-3G nmr pop=nbo
 ------------------------

 99/9=1/99;
 -------
 comment
 -------
 Charge =  0 Multiplicity = 1

                         Standard orientation:
 ---------------------------------------------------------------------
 Center     Atomic      Atomic             Coordinates (Angstroms)
 Number     Number       Type             X           Y           Z
 ---------------------------------------------------------------------
      1          6           0       -3.715493   -0.172175   -0.284035
      2          6           0       -2.194597   -0.241780   -0.401585
      3          6           0       -0.095560    1.027903    0.406635
      4          6           0       -0.113971   -1.499818    0.265588
      5          6           0        0.643783   -0.210113   -0.148061
      6          6           0       -1.616482   -1.330251    0.492543
      7          6           0       -1.556974    1.111268   -0.069643
      8          8           0        0.534399    2.240596    0.008667
      9          6           0        2.153660   -0.326010    0.254181
     10          6           0        3.008369    0.880101   -0.150259
     11          6           0        2.800214   -1.583836   -0.351933
     12          1           0       -4.170907   -1.124008   -0.577053
     13          1           0       -4.026760    0.048624    0.742650
     14          1           0       -4.119560    0.608373   -0.937258
     15          1           0       -1.955319   -0.490034   -1.444549
     16          1           0       -0.068801    0.990059    1.502966
     17          1           0        0.313633   -1.922551    1.183463
     18          1           0        0.035180   -2.252896   -0.519030
     19          1           0        0.616355   -0.135521   -1.245265
     20          1           0       -1.797282   -1.077258    1.545590
     21          1           0       -2.117530   -2.289448    0.315101
     22          1           0       -2.131799    1.626106    0.712110
     23          1           0       -1.636471    1.760920   -0.951866
     24          1           0        0.055000    2.974032    0.430596
     25          1           0        2.213946   -0.418129    1.346762
     26          1           0        4.076256    0.665805   -0.028499
     27          1           0        2.839903    1.155699   -1.196405
     28          1           0        2.801955    1.746215    0.484211
     29          1           0        2.718534   -1.580594   -1.444192
     30          1           0        2.337425   -2.501027    0.023728
     31          1           0        3.863352   -1.640868   -0.092991
 ---------------------------------------------------------------------

 SCF Done:  E(RHF) =  -459.608873180     A.U. after   10 cycles

      1  C    Isotropic =   221.1991   Anisotropy =    27.7487

      2  C    Isotropic =   217.0424   Anisotropy =     9.3698

      3  C    Isotropic =   187.9531   Anisotropy =    39.3948

      4  C    Isotropic =   216.3755   Anisotropy =    18.2647

      5  C    Isotropic =   209.8247   Anisotropy =    17.9938

      6  C    Isotropic =   217.5474   Anisotropy =    17.0700

      7  C    Isotropic =   213.1463   Anisotropy =    28.3074

      8  O    Isotropic =   353.6288   Anisotropy =    74.8345

      9  C    Isotropic =   210.9479   Anisotropy =    18.5478

     10  C    Isotropic =   220.7547   Anisotropy =    24.7862

     11  C    Isotropic =   220.5462   Anisotropy =    26.2746

     12  H    Isotropic =    32.4973   Anisotropy =    13.9531

     13  H    Isotropic =    32.7645   Anisotropy =    11.6934

     14  H    Isotropic =    32.4172   Anisotropy =    13.4982

     15  H    Isotropic =    32.5833   Anisotropy =    10.5183

     16  H    Isotropic =    32.0637   Anisotropy =     7.7336

     17  H    Isotropic =    32.5504   Anisotropy =    11.1968

     18  H    Isotropic =    32.1718   Anisotropy =    11.8538

     19  H    Isotropic =    32.4579   Anisotropy =     7.8141

     20  H    Isotropic =    32.8580   Anisotropy =    11.0987

     21  H    Isotropic =    32.4852   Anisotropy =    13.9376

     22  H    Isotropic =    32.6613   Anisotropy =    11.3989

     23  H    Isotropic =    32.1765   Anisotropy =    11.6387

     24  H    Isotropic =    34.8259   Anisotropy =    18.8666

     25  H    Isotropic =    32.6246   Anisotropy =     9.8838

     26  H    Isotropic =    32.5846   Anisotropy =    14.2255

     27  H    Isotropic =    32.3079   Anisotropy =    10.2811

     28  H    Isotropic =    31.7380   Anisotropy =    10.7052

     29  H    Isotropic =    32.5251   Anisotropy =    11.0611

     30  H    Isotropic =    32.3623   Anisotropy =    10.6794

     31  H    Isotropic =    32.4944   Anisotropy =    14.3166

 The electronic state is 1-A.
 Alpha  occ. eigenvalues --  -20.23652 -11.08557 -11.04733 -11.04321 -11.04159
 Alpha  occ. eigenvalues --  -11.03653 -11.03573 -11.03513 -11.03305 -11.02487
 Alpha  occ. eigenvalues --  -11.01583  -1.27856  -1.08108  -1.03306  -0.96640
 Alpha  occ. eigenvalues --   -0.94511  -0.87915  -0.87748  -0.79428  -0.78030
 Alpha  occ. eigenvalues --   -0.73783  -0.68860  -0.63233  -0.59934  -0.59528
 Alpha  occ. eigenvalues --   -0.56612  -0.56428  -0.54495  -0.52826  -0.51685
 Alpha  occ. eigenvalues --   -0.50104  -0.49653  -0.49239  -0.47725  -0.46530
 Alpha  occ. eigenvalues --   -0.45552  -0.44104  -0.42934  -0.41996  -0.40980
 Alpha  occ. eigenvalues --   -0.38983  -0.38342  -0.36277  -0.32763
 Alpha virt. eigenvalues --    0.53079   0.54199   0.56484   0.60337   0.60940
 Alpha virt. eigenvalues --    0.62064   0.62399   0.64928   0.65653   0.67333
 Alpha virt. eigenvalues --    0.68322   0.69960   0.70676   0.71945   0.72839

 Mulliken atomic charges:
              1
     1  C   -0.171210
     2  C   -0.023407
     3  C    0.077481
     4  C   -0.102245
     5  C   -0.032033
     6  C   -0.101230
     7  C   -0.115329
     8  O   -0.312299
     9  C   -0.016220
    10  C   -0.172094
    11  C   -0.173384
    12  H    0.054263
    13  H    0.052576
    14  H    0.054018
    15  H    0.048649
    16  H    0.037570
    17  H    0.049478
    18  H    0.051051
    19  H    0.049715
    20  H    0.045810
    21  H    0.051767
    22  H    0.044482
    23  H    0.056243
    24  H    0.176505
    25  H    0.042805
    26  H    0.047945
    27  H    0.056073
    28  H    0.065103
    29  H    0.051799
    30  H    0.052563
    31  H    0.053554
 Sum of Mulliken atomic charges =   0.00000

 Dipole moment (field-independent basis, Debye):
    X=             -1.1748    Y=             -0.1497    Z=              0.7621  Tot=              1.4083
 Quadrupole moment (field-independent basis, Debye-Ang):
   XX=            -69.3621   YY=            -66.6889   ZZ=            -66.5327
   XY=             -2.6574   XZ=              0.3333   YZ=              2.2738

 Summary of Natural Population Analysis:

                                       Natural Population
                Natural  -----------------------------------------------
    Atom  No    Charge         Core      Valence    Rydberg      Total
 -----------------------------------------------------------------------
      C    1   -0.12593      1.99997     4.12596    0.00000     6.12593
      C    2    0.01371      1.99997     3.98632    0.00000     5.98629
      C    3    0.14542      1.99989     3.85469    0.00000     5.85458
      C    4   -0.06398      1.99995     4.06403    0.00000     6.06398
      C    5   -0.00885      1.99995     4.00890    0.00000     6.00885
      C    6   -0.06515      1.99997     4.06519    0.00000     6.06515
      C    7   -0.09096      1.99996     4.09100    0.00000     6.09096
      O    8   -0.33367      1.99999     6.33368    0.00000     8.33367
      C    9    0.02655      1.99996     3.97350    0.00000     5.97345
      C   10   -0.12962      1.99997     4.12965    0.00000     6.12962
      C   11   -0.12900      1.99997     4.12903    0.00000     6.12900
      H   12    0.03694      0.00000     0.96306    0.00000     0.96306
      H   13    0.03533      0.00000     0.96467    0.00000     0.96467
      H   14    0.03672      0.00000     0.96328    0.00000     0.96328
      H   15    0.02486      0.00000     0.97514    0.00000     0.97514
      H   16    0.00179      0.00000     0.99821    0.00000     0.99821
      H   17    0.02823      0.00000     0.97177    0.00000     0.97177
      H   18    0.02980      0.00000     0.97020    0.00000     0.97020
      H   19    0.02328      0.00000     0.97672    0.00000     0.97672
      H   20    0.02558      0.00000     0.97442    0.00000     0.97442
      H   21    0.03153      0.00000     0.96847    0.00000     0.96847
      H   22    0.02426      0.00000     0.97574    0.00000     0.97574
      H   23    0.03554      0.00000     0.96446    0.00000     0.96446
      H   24    0.18917      0.00000     0.81083    0.00000     0.81083
      H   25    0.01697      0.00000     0.98303    0.00000     0.98303
      H   26    0.03112      0.00000     0.96888    0.00000     0.96888
      H   27    0.03867      0.00000     0.96133    0.00000     0.96133
      H   28    0.04643      0.00000     0.95357    0.00000     0.95357
      H   29    0.03435      0.00000     0.96565    0.00000     0.96565
      H   30    0.03470      0.00000     0.96530    0.00000     0.96530
      H   31    0.03622      0.00000     0.96378    0.00000     0.96378
 =======================================================================
   * Total *    0.00000     21.99955    66.00045    0.00000    88.00000

 Normal termination of Gaussian 09 at Tue Aug  3 16:37:56 2021.
