 Gaussian 09, Revision C.01,
 Gaussian 09:  EM64L-G09RevC.01 23-Sep-2011

 ------------------------
 # rhf/STO-3G nmr pop=nbo
 ------------------------

 99/9=1/99;
 -------
 comment
 -------
 Charge =  0 Multiplicity = 1

                         Standard orientation:
 ---------------------------------------------------------------------
 Center     Atomic      Atomic             Coordinates (Angstroms)
 Number     Number       Type             X           Y           Z
 ---------------------------------------------------------------------
      1          6           0       -3.674449   -0.149654   -0.198544
      2          6           0       -2.154119   -0.087956   -0.330576
      3          6           0       -0.037426    1.060545    0.453218
      4          6           0       -0.085349   -1.462897    0.335069
      5          6           0        0.678018   -0.200930   -0.101845
      6          6           0       -1.534461   -1.482164   -0.164508
      7          6           0       -1.547130    0.891311    0.675515
      8          8           0        0.163169    2.150605   -0.451047
      9          6           0        2.181962   -0.247679    0.321448
     10          6           0        2.950833    1.011825   -0.099224
     11          6           0        2.911812   -1.469958   -0.252286
     12          1           0       -4.099024   -0.846798   -0.928584
     13          1           0       -3.974811   -0.479601    0.801757
     14          1           0       -4.119340    0.835005   -0.376681
     15          1           0       -1.927793    0.271370   -1.343367
     16          1           0        0.407593    1.364398    1.407718
     17          1           0       -0.081100   -1.524518    1.431240
     18          1           0        0.399274   -2.374672   -0.027249
     19          1           0        0.657514   -0.161588   -1.200698
     20          1           0       -2.126445   -2.094970    0.527022
     21          1           0       -1.577140   -1.996614   -1.133209
     22          1           0       -1.721151    0.511829    1.690938
     23          1           0       -2.049322    1.863889    0.604497
     24          1           0       -0.253818    1.918499   -1.298041
     25          1           0        2.233723   -0.316630    1.416154
     26          1           0        2.863039    1.187796   -1.176578
     27          1           0        2.588658    1.899087    0.428050
     28          1           0        4.015791    0.918235    0.140891
     29          1           0        2.795733   -1.526013   -1.339785
     30          1           0        2.541394   -2.401844    0.184073
     31          1           0        3.983729   -1.426361   -0.029363
 ---------------------------------------------------------------------

 SCF Done:  E(RHF) =  -459.613159711     A.U. after   10 cycles

      1  C    Isotropic =   221.2419   Anisotropy =    27.7009

      2  C    Isotropic =   217.9717   Anisotropy =     8.9811

      3  C    Isotropic =   187.5563   Anisotropy =    32.1326

      4  C    Isotropic =   219.1478   Anisotropy =    16.1040

      5  C    Isotropic =   207.0136   Anisotropy =    15.0928

      6  C    Isotropic =   216.7541   Anisotropy =    19.8994

      7  C    Isotropic =   214.4484   Anisotropy =    18.7081

      8  O    Isotropic =   345.2165   Anisotropy =    53.1054

      9  C    Isotropic =   211.3849   Anisotropy =    18.2248

     10  C    Isotropic =   221.1151   Anisotropy =    24.0650

     11  C    Isotropic =   221.2531   Anisotropy =    25.6849

     12  H    Isotropic =    32.4342   Anisotropy =    13.5594

     13  H    Isotropic =    32.7095   Anisotropy =    11.9703

     14  H    Isotropic =    32.5416   Anisotropy =    13.8202

     15  H    Isotropic =    33.1831   Anisotropy =     9.9618

     16  H    Isotropic =    31.4190   Anisotropy =     9.2131

     17  H    Isotropic =    32.8564   Anisotropy =    11.1312

     18  H    Isotropic =    32.3673   Anisotropy =    12.6666

     19  H    Isotropic =    33.2823   Anisotropy =     6.7356

     20  H    Isotropic =    32.5944   Anisotropy =    12.8322

     21  H    Isotropic =    32.3835   Anisotropy =    13.1517

     22  H    Isotropic =    32.5123   Anisotropy =    11.2353

     23  H    Isotropic =    32.2748   Anisotropy =    13.0373

     24  H    Isotropic =    34.9619   Anisotropy =    13.2896

     25  H    Isotropic =    32.6885   Anisotropy =    10.3533

     26  H    Isotropic =    32.4423   Anisotropy =    10.4713

     27  H    Isotropic =    31.8779   Anisotropy =    10.1382

     28  H    Isotropic =    32.5036   Anisotropy =    14.5680

     29  H    Isotropic =    32.6728   Anisotropy =    10.8821

     30  H    Isotropic =    32.3875   Anisotropy =    11.2400

     31  H    Isotropic =    32.4962   Anisotropy =    14.3140

 The electronic state is 1-A.
 Alpha  occ. eigenvalues --  -20.23489 -11.08422 -11.04990 -11.04573 -11.04486
 Alpha  occ. eigenvalues --  -11.03781 -11.03751 -11.03682 -11.03492 -11.02907
 Alpha  occ. eigenvalues --  -11.02282  -1.27621  -1.08281  -1.03786  -0.97028
 Alpha  occ. eigenvalues --   -0.94676  -0.88471  -0.87995  -0.79865  -0.78414
 Alpha  occ. eigenvalues --   -0.74033  -0.69306  -0.63217  -0.61163  -0.57835
 Alpha  occ. eigenvalues --   -0.56830  -0.55914  -0.54457  -0.53286  -0.51975
 Alpha  occ. eigenvalues --   -0.51680  -0.50679  -0.49813  -0.48138  -0.46261
 Alpha  occ. eigenvalues --   -0.45840  -0.44553  -0.42994  -0.42549  -0.41430
 Alpha  occ. eigenvalues --   -0.39830  -0.39256  -0.35863  -0.32544
 Alpha virt. eigenvalues --    0.53412   0.54412   0.57435   0.59301   0.61108
 Alpha virt. eigenvalues --    0.61570   0.61821   0.63468   0.65247   0.66721
 Alpha virt. eigenvalues --    0.67362   0.69297   0.70865   0.71826   0.72100

 Mulliken atomic charges:
              1
     1  C   -0.171139
     2  C   -0.025225
     3  C    0.073962
     4  C   -0.104234
     5  C   -0.038124
     6  C   -0.101767
     7  C   -0.115339
     8  O   -0.311927
     9  C   -0.017850
    10  C   -0.173424
    11  C   -0.173902
    12  H    0.054708
    13  H    0.054216
    14  H    0.054218
    15  H    0.038664
    16  H    0.058872
    17  H    0.046667
    18  H    0.054902
    19  H    0.041589
    20  H    0.050669
    21  H    0.047738
    22  H    0.050678
    23  H    0.060071
    24  H    0.173527
    25  H    0.044552
    26  H    0.053633
    27  H    0.063374
    28  H    0.051263
    29  H    0.051693
    30  H    0.053127
    31  H    0.054809
 Sum of Mulliken atomic charges =   0.00000

 Dipole moment (field-independent basis, Debye):
    X=             -0.7315    Y=             -1.2915    Z=             -0.2408  Tot=              1.5036
 Quadrupole moment (field-independent basis, Debye-Ang):
   XX=            -68.2462   YY=            -72.7077   ZZ=            -65.0042
   XY=             -1.5705   XZ=              0.7536   YZ=             -0.4255

 Summary of Natural Population Analysis:

                                       Natural Population
                Natural  -----------------------------------------------
    Atom  No    Charge         Core      Valence    Rydberg      Total
 -----------------------------------------------------------------------
      C    1   -0.12617      1.99997     4.12619    0.00000     6.12617
      C    2    0.01291      1.99997     3.98712    0.00000     5.98709
      C    3    0.14141      1.99989     3.85870    0.00000     5.85859
      C    4   -0.06727      1.99996     4.06731    0.00000     6.06727
      C    5   -0.01578      1.99996     4.01583    0.00000     6.01578
      C    6   -0.06421      1.99996     4.06425    0.00000     6.06421
      C    7   -0.09273      1.99996     4.09276    0.00000     6.09273
      O    8   -0.33312      1.99999     6.33313    0.00000     8.33312
      C    9    0.02418      1.99996     3.97586    0.00000     5.97582
      C   10   -0.13011      1.99997     4.13014    0.00000     6.13011
      C   11   -0.12985      1.99997     4.12988    0.00000     6.12985
      H   12    0.03736      0.00000     0.96264    0.00000     0.96264
      H   13    0.03685      0.00000     0.96315    0.00000     0.96315
      H   14    0.03684      0.00000     0.96316    0.00000     0.96316
      H   15    0.01542      0.00000     0.98458    0.00000     0.98458
      H   16    0.02327      0.00000     0.97673    0.00000     0.97673
      H   17    0.02594      0.00000     0.97406    0.00000     0.97406
      H   18    0.03358      0.00000     0.96642    0.00000     0.96642
      H   19    0.01685      0.00000     0.98315    0.00000     0.98315
      H   20    0.02988      0.00000     0.97012    0.00000     0.97012
      H   21    0.02698      0.00000     0.97302    0.00000     0.97302
      H   22    0.03078      0.00000     0.96922    0.00000     0.96922
      H   23    0.03950      0.00000     0.96050    0.00000     0.96050
      H   24    0.18574      0.00000     0.81426    0.00000     0.81426
      H   25    0.01892      0.00000     0.98108    0.00000     0.98108
      H   26    0.03629      0.00000     0.96371    0.00000     0.96371
      H   27    0.04474      0.00000     0.95526    0.00000     0.95526
      H   28    0.03420      0.00000     0.96580    0.00000     0.96580
      H   29    0.03447      0.00000     0.96553    0.00000     0.96553
      H   30    0.03557      0.00000     0.96443    0.00000     0.96443
      H   31    0.03756      0.00000     0.96244    0.00000     0.96244
 =======================================================================
   * Total *    0.00000     21.99956    66.00044    0.00000    88.00000

 Normal termination of Gaussian 09 at Tue Aug  3 16:37:16 2021.
