 Gaussian 09, Revision C.01,
 Gaussian 09:  EM64L-G09RevC.01 23-Sep-2011

 ------------------------
 # rhf/STO-3G nmr pop=nbo
 ------------------------

 99/9=1/99;
 -------
 comment
 -------
 Charge =  0 Multiplicity = 1

                         Standard orientation:
 ---------------------------------------------------------------------
 Center     Atomic      Atomic             Coordinates (Angstroms)
 Number     Number       Type             X           Y           Z
 ---------------------------------------------------------------------
      1          6           0       -2.858009   -0.287651    1.223794
      2          6           0       -2.435062   -0.116263   -0.236545
      3          6           0       -0.194774    1.069924    0.145539
      4          6           0       -0.268290   -1.455120   -0.156264
      5          6           0        0.596764   -0.182948   -0.311986
      6          6           0       -1.663850   -1.326863   -0.761148
      7          6           0       -1.605440    1.147843   -0.447787
      8          8           0        0.472628    2.270077   -0.244896
      9          6           0        1.961282   -0.358906    0.442645
     10          6           0        2.892921    0.853287    0.330299
     11          6           0        2.733440   -1.595808   -0.043168
     12          1           0       -2.003474   -0.382535    1.899893
     13          1           0       -3.450196    0.572371    1.554504
     14          1           0       -3.478437   -1.182527    1.341312
     15          1           0       -3.355760   -0.020360   -0.826762
     16          1           0       -0.257782    1.082112    1.239395
     17          1           0       -0.351880   -1.717439    0.905371
     18          1           0        0.219722   -2.303000   -0.649559
     19          1           0        0.829438   -0.060208   -1.379519
     20          1           0       -2.230343   -2.246415   -0.571163
     21          1           0       -1.567169   -1.242629   -1.851476
     22          1           0       -2.127530    2.021355   -0.036168
     23          1           0       -1.528046    1.345890   -1.526074
     24          1           0        0.584897    2.249888   -1.210609
     25          1           0        1.747198   -0.506276    1.509745
     26          1           0        3.022864    1.160156   -0.712659
     27          1           0        2.513928    1.702119    0.906168
     28          1           0        3.884350    0.627734    0.739152
     29          1           0        2.881857   -1.567754   -1.127821
     30          1           0        2.211984   -2.522818    0.212115
     31          1           0        3.719457   -1.655252    0.431047
 ---------------------------------------------------------------------

 SCF Done:  E(RHF) =  -459.617182884     A.U. after   10 cycles

      1  C    Isotropic =   223.1553   Anisotropy =    24.2351

      2  C    Isotropic =   216.9182   Anisotropy =     3.7863

      3  C    Isotropic =   189.3978   Anisotropy =    38.1923

      4  C    Isotropic =   218.6945   Anisotropy =    17.6107

      5  C    Isotropic =   206.8492   Anisotropy =    11.9886

      6  C    Isotropic =   217.2815   Anisotropy =    11.7343

      7  C    Isotropic =   214.8081   Anisotropy =    18.0633

      8  O    Isotropic =   345.4657   Anisotropy =    86.0094

      9  C    Isotropic =   211.2245   Anisotropy =    18.5265

     10  C    Isotropic =   220.9579   Anisotropy =    24.3633

     11  C    Isotropic =   220.7815   Anisotropy =    25.9478

     12  H    Isotropic =    32.6387   Anisotropy =     7.8599

     13  H    Isotropic =    32.5253   Anisotropy =    14.2799

     14  H    Isotropic =    32.6121   Anisotropy =    14.4005

     15  H    Isotropic =    32.4610   Anisotropy =    15.3650

     16  H    Isotropic =    31.6375   Anisotropy =     7.2129

     17  H    Isotropic =    32.8507   Anisotropy =     9.4188

     18  H    Isotropic =    32.4028   Anisotropy =    12.5515

     19  H    Isotropic =    33.4587   Anisotropy =     8.0827

     20  H    Isotropic =    32.5258   Anisotropy =    14.5152

     21  H    Isotropic =    32.6803   Anisotropy =    12.9347

     22  H    Isotropic =    31.9917   Anisotropy =    13.6673

     23  H    Isotropic =    32.9395   Anisotropy =    11.5873

     24  H    Isotropic =    35.4948   Anisotropy =    14.5859

     25  H    Isotropic =    32.6237   Anisotropy =     9.9470

     26  H    Isotropic =    32.6565   Anisotropy =    10.3438

     27  H    Isotropic =    31.6904   Anisotropy =    10.3028

     28  H    Isotropic =    32.5576   Anisotropy =    14.3608

     29  H    Isotropic =    32.6783   Anisotropy =    11.0255

     30  H    Isotropic =    32.3696   Anisotropy =    10.9374

     31  H    Isotropic =    32.5328   Anisotropy =    14.2272

 The electronic state is 1-A.
 Alpha  occ. eigenvalues --  -20.23696 -11.08594 -11.04810 -11.04588 -11.04547
 Alpha  occ. eigenvalues --  -11.03846 -11.03811 -11.03705 -11.03259 -11.02887
 Alpha  occ. eigenvalues --  -11.02225  -1.27817  -1.08303  -1.03670  -0.96691
 Alpha  occ. eigenvalues --   -0.94608  -0.88664  -0.88330  -0.79696  -0.78564
 Alpha  occ. eigenvalues --   -0.73262  -0.70412  -0.62978  -0.59029  -0.58671
 Alpha  occ. eigenvalues --   -0.57361  -0.55367  -0.54884  -0.53963  -0.53181
 Alpha  occ. eigenvalues --   -0.51115  -0.50374  -0.49941  -0.47677  -0.46263
 Alpha  occ. eigenvalues --   -0.45187  -0.44231  -0.42929  -0.42201  -0.41518
 Alpha  occ. eigenvalues --   -0.40776  -0.39565  -0.35928  -0.32203
 Alpha virt. eigenvalues --    0.53001   0.54258   0.57636   0.60138   0.61516
 Alpha virt. eigenvalues --    0.61801   0.62613   0.64824   0.65609   0.66355
 Alpha virt. eigenvalues --    0.68524   0.69406   0.70257   0.70627   0.72285

 Mulliken atomic charges:
              1
     1  C   -0.174985
     2  C   -0.024874
     3  C    0.073869
     4  C   -0.103578
     5  C   -0.038977
     6  C   -0.100438
     7  C   -0.111291
     8  O   -0.310783
     9  C   -0.018666
    10  C   -0.174320
    11  C   -0.173709
    12  H    0.053271
    13  H    0.055207
    14  H    0.054251
    15  H    0.049622
    16  H    0.058780
    17  H    0.048500
    18  H    0.054115
    19  H    0.037800
    20  H    0.051325
    21  H    0.046511
    22  H    0.057749
    23  H    0.042693
    24  H    0.175622
    25  H    0.044878
    26  H    0.049054
    27  H    0.068425
    28  H    0.050911
    29  H    0.050960
    30  H    0.053407
    31  H    0.054672
 Sum of Mulliken atomic charges =   0.00000

 Dipole moment (field-independent basis, Debye):
    X=             -0.5218    Y=             -1.1003    Z=             -0.8435  Tot=              1.4813
 Quadrupole moment (field-independent basis, Debye-Ang):
   XX=            -68.1325   YY=            -72.1010   ZZ=            -65.2310
   XY=             -1.0816   XZ=             -0.4709   YZ=             -2.1296

 Summary of Natural Population Analysis:

                                       Natural Population
                Natural  -----------------------------------------------
    Atom  No    Charge         Core      Valence    Rydberg      Total
 -----------------------------------------------------------------------
      C    1   -0.12999      1.99997     4.13002    0.00000     6.12999
      C    2    0.01255      1.99997     3.98748    0.00000     5.98745
      C    3    0.14027      1.99989     3.85984    0.00000     5.85973
      C    4   -0.06617      1.99995     4.06622    0.00000     6.06617
      C    5   -0.01516      1.99995     4.01521    0.00000     6.01516
      C    6   -0.06368      1.99996     4.06372    0.00000     6.06368
      C    7   -0.08831      1.99996     4.08834    0.00000     6.08831
      O    8   -0.33167      1.99999     6.33168    0.00000     8.33167
      C    9    0.02372      1.99996     3.97632    0.00000     5.97628
      C   10   -0.13151      1.99997     4.13154    0.00000     6.13151
      C   11   -0.12958      1.99997     4.12961    0.00000     6.12958
      H   12    0.03595      0.00000     0.96405    0.00000     0.96405
      H   13    0.03799      0.00000     0.96201    0.00000     0.96201
      H   14    0.03711      0.00000     0.96289    0.00000     0.96289
      H   15    0.02583      0.00000     0.97417    0.00000     0.97417
      H   16    0.02334      0.00000     0.97666    0.00000     0.97666
      H   17    0.02740      0.00000     0.97260    0.00000     0.97260
      H   18    0.03289      0.00000     0.96711    0.00000     0.96711
      H   19    0.01264      0.00000     0.98736    0.00000     0.98736
      H   20    0.03086      0.00000     0.96914    0.00000     0.96914
      H   21    0.02618      0.00000     0.97382    0.00000     0.97382
      H   22    0.03684      0.00000     0.96316    0.00000     0.96316
      H   23    0.02323      0.00000     0.97677    0.00000     0.97677
      H   24    0.18784      0.00000     0.81216    0.00000     0.81216
      H   25    0.01903      0.00000     0.98097    0.00000     0.98097
      H   26    0.03234      0.00000     0.96766    0.00000     0.96766
      H   27    0.04939      0.00000     0.95061    0.00000     0.95061
      H   28    0.03395      0.00000     0.96605    0.00000     0.96605
      H   29    0.03370      0.00000     0.96630    0.00000     0.96630
      H   30    0.03569      0.00000     0.96431    0.00000     0.96431
      H   31    0.03734      0.00000     0.96266    0.00000     0.96266
 =======================================================================
   * Total *    0.00000     21.99955    66.00045    0.00000    88.00000

 Normal termination of Gaussian 09 at Sun May 24 02:08:39 2020.
