 Gaussian 09, Revision C.01,
 Gaussian 09:  EM64L-G09RevC.01 23-Sep-2011

 ------------------------
 # rhf/STO-3G nmr pop=nbo
 ------------------------

 99/9=1/99;
 -------
 comment
 -------
 Charge =  0 Multiplicity = 1

                         Standard orientation:
 ---------------------------------------------------------------------
 Center     Atomic      Atomic             Coordinates (Angstroms)
 Number     Number       Type             X           Y           Z
 ---------------------------------------------------------------------
      1          6           0        3.651194   -0.449051   -0.005276
      2          6           0        2.190004   -0.102070    0.278914
      3          6           0        0.132125    1.101764   -0.644043
      4          6           0       -0.127230   -1.068799    0.657740
      5          6           0       -0.697508   -0.192312   -0.472404
      6          6           0        1.353644   -1.377707    0.433737
      7          6           0        1.622747    0.794899   -0.832654
      8          8           0       -0.025699    1.998392    0.449378
      9          6           0       -2.226821    0.075724   -0.347121
     10          6           0       -2.703303    0.532483    1.034807
     11          6           0       -3.029510   -1.167264   -0.758139
     12          1           0        3.753976   -1.006997   -0.942192
     13          1           0        4.257500    0.459490   -0.083752
     14          1           0        4.068386   -1.061599    0.800944
     15          1           0        2.160507    0.448905    1.227619
     16          1           0       -0.222270    1.636749   -1.532798
     17          1           0       -0.675217   -2.015569    0.717272
     18          1           0       -0.240736   -0.575072    1.629454
     19          1           0       -0.554981   -0.754445   -1.407868
     20          1           0        1.458751   -2.004479   -0.461229
     21          1           0        1.729033   -1.968525    1.277981
     22          1           0        1.764557    0.305392   -1.804771
     23          1           0        2.188952    1.734376   -0.855503
     24          1           0        0.260111    1.551959    1.262777
     25          1           0       -2.486169    0.866302   -1.063964
     26          1           0       -2.541827   -0.237272    1.796106
     27          1           0       -2.206330    1.448216    1.360801
     28          1           0       -3.778346    0.745341    1.013247
     29          1           0       -2.868634   -2.001230   -0.067798
     30          1           0       -2.751129   -1.497884   -1.764319
     31          1           0       -4.102599   -0.946792   -0.770398
 ---------------------------------------------------------------------

 SCF Done:  E(RHF) =  -459.620842608     A.U. after   10 cycles

      1  C    Isotropic =   221.1002   Anisotropy =    28.5447

      2  C    Isotropic =   217.0922   Anisotropy =    10.4650

      3  C    Isotropic =   188.4559   Anisotropy =    29.6763

      4  C    Isotropic =   220.9600   Anisotropy =    16.0930

      5  C    Isotropic =   209.6684   Anisotropy =    17.5460

      6  C    Isotropic =   215.9027   Anisotropy =    16.9384

      7  C    Isotropic =   214.2481   Anisotropy =    17.2812

      8  O    Isotropic =   367.1310   Anisotropy =    66.4225

      9  C    Isotropic =   212.7270   Anisotropy =    17.7702

     10  C    Isotropic =   223.5793   Anisotropy =    21.5912

     11  C    Isotropic =   220.2347   Anisotropy =    28.5385

     12  H    Isotropic =    32.7101   Anisotropy =    11.7697

     13  H    Isotropic =    32.4476   Anisotropy =    13.9538

     14  H    Isotropic =    32.4856   Anisotropy =    13.6926

     15  H    Isotropic =    33.1511   Anisotropy =    10.1834

     16  H    Isotropic =    31.3611   Anisotropy =    11.6287

     17  H    Isotropic =    32.5779   Anisotropy =    12.7099

     18  H    Isotropic =    33.2007   Anisotropy =     9.2399

     19  H    Isotropic =    32.8509   Anisotropy =     9.5600

     20  H    Isotropic =    32.8919   Anisotropy =    11.1668

     21  H    Isotropic =    32.5240   Anisotropy =    13.7662

     22  H    Isotropic =    32.7079   Anisotropy =    11.4992

     23  H    Isotropic =    32.0616   Anisotropy =    13.7789

     24  H    Isotropic =    34.9213   Anisotropy =    11.1565

     25  H    Isotropic =    32.2485   Anisotropy =    11.7255

     26  H    Isotropic =    32.8587   Anisotropy =     9.4846

     27  H    Isotropic =    32.1583   Anisotropy =    10.2396

     28  H    Isotropic =    32.5384   Anisotropy =    14.9492

     29  H    Isotropic =    32.5230   Anisotropy =     9.7909

     30  H    Isotropic =    32.5611   Anisotropy =    12.6864

     31  H    Isotropic =    32.4122   Anisotropy =    14.6073

 The electronic state is 1-A.
 Alpha  occ. eigenvalues --  -20.23735 -11.08539 -11.05063 -11.04578 -11.04299
 Alpha  occ. eigenvalues --  -11.04114 -11.04047 -11.03681 -11.03469 -11.02904
 Alpha  occ. eigenvalues --  -11.02508  -1.28013  -1.08243  -1.03859  -0.97138
 Alpha  occ. eigenvalues --   -0.95440  -0.88585  -0.88020  -0.80452  -0.78181
 Alpha  occ. eigenvalues --   -0.73095  -0.70281  -0.62187  -0.60011  -0.59076
 Alpha  occ. eigenvalues --   -0.58560  -0.56547  -0.54442  -0.52988  -0.52841
 Alpha  occ. eigenvalues --   -0.51704  -0.50450  -0.49710  -0.48225  -0.47398
 Alpha  occ. eigenvalues --   -0.45448  -0.43985  -0.43053  -0.42424  -0.41791
 Alpha  occ. eigenvalues --   -0.39854  -0.39423  -0.36549  -0.32364
 Alpha virt. eigenvalues --    0.53505   0.55840   0.57245   0.58308   0.60531
 Alpha virt. eigenvalues --    0.61161   0.62313   0.64941   0.66094   0.67539
 Alpha virt. eigenvalues --    0.68221   0.69059   0.70663   0.72135   0.72489

 Mulliken atomic charges:
              1
     1  C   -0.171372
     2  C   -0.026909
     3  C    0.076852
     4  C   -0.106697
     5  C   -0.041399
     6  C   -0.100894
     7  C   -0.113986
     8  O   -0.315746
     9  C   -0.018511
    10  C   -0.178901
    11  C   -0.172412
    12  H    0.053893
    13  H    0.055292
    14  H    0.054420
    15  H    0.041308
    16  H    0.058358
    17  H    0.054269
    18  H    0.043914
    19  H    0.046502
    20  H    0.048392
    21  H    0.050644
    22  H    0.049925
    23  H    0.058036
    24  H    0.178460
    25  H    0.050396
    26  H    0.050400
    27  H    0.065695
    28  H    0.053538
    29  H    0.051670
    30  H    0.050936
    31  H    0.053928
 Sum of Mulliken atomic charges =   0.00000

 Dipole moment (field-independent basis, Debye):
    X=              0.5418    Y=             -1.3700    Z=              0.0555  Tot=              1.4743
 Quadrupole moment (field-independent basis, Debye-Ang):
   XX=            -68.1148   YY=            -72.4883   ZZ=            -65.4511
   XY=              0.6962   XZ=              0.6469   YZ=             -0.3497

 Summary of Natural Population Analysis:

                                       Natural Population
                Natural  -----------------------------------------------
    Atom  No    Charge         Core      Valence    Rydberg      Total
 -----------------------------------------------------------------------
      C    1   -0.12658      1.99997     4.12660    0.00000     6.12658
      C    2    0.01207      1.99997     3.98796    0.00000     5.98793
      C    3    0.14320      1.99989     3.85691    0.00000     5.85680
      C    4   -0.06878      1.99996     4.06882    0.00000     6.06878
      C    5   -0.02136      1.99995     4.02141    0.00000     6.02136
      C    6   -0.06332      1.99996     4.06335    0.00000     6.06332
      C    7   -0.09065      1.99996     4.09069    0.00000     6.09065
      O    8   -0.33646      1.99999     6.33647    0.00000     8.33646
      C    9    0.02269      1.99996     3.97735    0.00000     5.97731
      C   10   -0.13550      1.99997     4.13553    0.00000     6.13550
      C   11   -0.12775      1.99997     4.12778    0.00000     6.12775
      H   12    0.03651      0.00000     0.96349    0.00000     0.96349
      H   13    0.03783      0.00000     0.96217    0.00000     0.96217
      H   14    0.03705      0.00000     0.96295    0.00000     0.96295
      H   15    0.01769      0.00000     0.98231    0.00000     0.98231
      H   16    0.02295      0.00000     0.97705    0.00000     0.97705
      H   17    0.03341      0.00000     0.96659    0.00000     0.96659
      H   18    0.02358      0.00000     0.97642    0.00000     0.97642
      H   19    0.02206      0.00000     0.97794    0.00000     0.97794
      H   20    0.02760      0.00000     0.97240    0.00000     0.97240
      H   21    0.02984      0.00000     0.97016    0.00000     0.97016
      H   22    0.02988      0.00000     0.97012    0.00000     0.97012
      H   23    0.03701      0.00000     0.96299    0.00000     0.96299
      H   24    0.19066      0.00000     0.80934    0.00000     0.80934
      H   25    0.02481      0.00000     0.97519    0.00000     0.97519
      H   26    0.03357      0.00000     0.96643    0.00000     0.96643
      H   27    0.04692      0.00000     0.95308    0.00000     0.95308
      H   28    0.03688      0.00000     0.96312    0.00000     0.96312
      H   29    0.03413      0.00000     0.96587    0.00000     0.96587
      H   30    0.03355      0.00000     0.96645    0.00000     0.96645
      H   31    0.03651      0.00000     0.96349    0.00000     0.96349
 =======================================================================
   * Total *    0.00000     21.99956    66.00044    0.00000    88.00000

 Normal termination of Gaussian 09 at Tue Aug  3 16:37:57 2021.
