 Gaussian 09, Revision C.01,
 Gaussian 09:  EM64L-G09RevC.01 23-Sep-2011

 ------------------------
 # rhf/STO-3G nmr pop=nbo
 ------------------------

 99/9=1/99;
 -------
 comment
 -------
 Charge =  0 Multiplicity = 1

                         Standard orientation:
 ---------------------------------------------------------------------
 Center     Atomic      Atomic             Coordinates (Angstroms)
 Number     Number       Type             X           Y           Z
 ---------------------------------------------------------------------
      1          6           0       -3.687829    0.231840   -0.295598
      2          6           0       -2.242027    0.100375    0.180645
      3          6           0       -0.044666   -1.128587   -0.182463
      4          6           0       -0.037926    1.322225    0.459444
      5          6           0        0.719210    0.211460   -0.302055
      6          6           0       -1.501984    1.431566    0.035538
      7          6           0       -1.512743   -0.999302   -0.599943
      8          8           0        0.025150   -1.600793    1.161962
      9          6           0        2.202110    0.106982    0.177778
     10          6           0        2.969142    1.421464   -0.021585
     11          6           0        2.966627   -1.011994   -0.541610
     12          1           0       -4.216916    1.000077    0.278084
     13          1           0       -3.735975    0.506981   -1.354698
     14          1           0       -4.226243   -0.712949   -0.166406
     15          1           0       -2.263323   -0.173708    1.243541
     16          1           0        0.421861   -1.885917   -0.821215
     17          1           0        0.429315    2.296149    0.280013
     18          1           0        0.014898    1.137737    1.539750
     19          1           0        0.727401    0.489169   -1.365879
     20          1           0       -1.548858    1.774390   -1.006215
     21          1           0       -1.994942    2.200375    0.642751
     22          1           0       -1.563087   -0.788052   -1.675713
     23          1           0       -2.026341   -1.954179   -0.432121
     24          1           0       -0.441697   -2.452902    1.198715
     25          1           0        2.215095   -0.119563    1.251808
     26          1           0        2.907945    1.762069   -1.060605
     27          1           0        2.583335    2.214355    0.625569
     28          1           0        4.028150    1.298552    0.231254
     29          1           0        2.908648   -0.895024   -1.628959
     30          1           0        2.575224   -1.999082   -0.278620
     31          1           0        4.024831   -1.008306   -0.257653
 ---------------------------------------------------------------------

 SCF Done:  E(RHF) =  -459.623289636     A.U. after   10 cycles

      1  C    Isotropic =   221.0299   Anisotropy =    28.3665

      2  C    Isotropic =   216.4192   Anisotropy =     7.9270

      3  C    Isotropic =   189.6642   Anisotropy =    35.7289

      4  C    Isotropic =   217.5579   Anisotropy =    15.7482

      5  C    Isotropic =   208.6492   Anisotropy =    17.1315

      6  C    Isotropic =   215.5854   Anisotropy =    17.3611

      7  C    Isotropic =   213.2495   Anisotropy =    19.2944

      8  O    Isotropic =   356.7899   Anisotropy =    96.7601

      9  C    Isotropic =   213.1984   Anisotropy =    16.9252

     10  C    Isotropic =   221.1408   Anisotropy =    25.8587

     11  C    Isotropic =   221.3353   Anisotropy =    24.5828

     12  H    Isotropic =    32.4114   Anisotropy =    13.9033

     13  H    Isotropic =    32.7191   Anisotropy =    11.6209

     14  H    Isotropic =    32.5233   Anisotropy =    13.6118

     15  H    Isotropic =    32.4376   Anisotropy =    10.2704

     16  H    Isotropic =    31.8654   Anisotropy =     9.8915

     17  H    Isotropic =    32.2973   Anisotropy =    12.7845

     18  H    Isotropic =    32.3134   Anisotropy =    10.1537

     19  H    Isotropic =    32.9299   Anisotropy =     8.8193

     20  H    Isotropic =    32.8314   Anisotropy =    11.0324

     21  H    Isotropic =    32.3235   Anisotropy =    14.1071

     22  H    Isotropic =    32.7336   Anisotropy =    10.8021

     23  H    Isotropic =    32.8200   Anisotropy =    12.7050

     24  H    Isotropic =    35.1941   Anisotropy =    19.4432

     25  H    Isotropic =    32.0563   Anisotropy =     9.5537

     26  H    Isotropic =    32.6584   Anisotropy =    11.1966

     27  H    Isotropic =    32.2618   Anisotropy =    11.2120

     28  H    Isotropic =    32.4678   Anisotropy =    14.2901

     29  H    Isotropic =    32.6736   Anisotropy =    11.0859

     30  H    Isotropic =    32.1373   Anisotropy =    10.4870

     31  H    Isotropic =    32.4651   Anisotropy =    14.3275

 The electronic state is 1-A.
 Alpha  occ. eigenvalues --  -20.23675 -11.08400 -11.04337 -11.04307 -11.04115
 Alpha  occ. eigenvalues --  -11.03754 -11.03220 -11.03024 -11.02983 -11.02569
 Alpha  occ. eigenvalues --  -11.02503  -1.27831  -1.07642  -1.03441  -0.96578
 Alpha  occ. eigenvalues --   -0.94961  -0.88401  -0.87670  -0.78943  -0.77697
 Alpha  occ. eigenvalues --   -0.72678  -0.70405  -0.63066  -0.59177  -0.58459
 Alpha  occ. eigenvalues --   -0.56687  -0.56491  -0.55064  -0.53442  -0.51569
 Alpha  occ. eigenvalues --   -0.50980  -0.50206  -0.49738  -0.48446  -0.45675
 Alpha  occ. eigenvalues --   -0.44499  -0.43571  -0.42692  -0.42238  -0.41378
 Alpha  occ. eigenvalues --   -0.39731  -0.38265  -0.35987  -0.33142
 Alpha virt. eigenvalues --    0.52989   0.56237   0.58411   0.59500   0.60595
 Alpha virt. eigenvalues --    0.61913   0.62583   0.64509   0.67525   0.68401
 Alpha virt. eigenvalues --    0.69906   0.70561   0.71095   0.71970   0.72734

 Mulliken atomic charges:
              1
     1  C   -0.172212
     2  C   -0.023588
     3  C    0.075686
     4  C   -0.101446
     5  C   -0.029290
     6  C   -0.098977
     7  C   -0.112335
     8  O   -0.315695
     9  C   -0.018448
    10  C   -0.173590
    11  C   -0.173603
    12  H    0.054251
    13  H    0.052085
    14  H    0.051972
    15  H    0.052900
    16  H    0.041295
    17  H    0.050933
    18  H    0.055544
    19  H    0.044758
    20  H    0.044482
    21  H    0.049766
    22  H    0.050467
    23  H    0.044377
    24  H    0.176101
    25  H    0.058028
    26  H    0.050346
    27  H    0.054547
    28  H    0.053711
    29  H    0.049148
    30  H    0.055442
    31  H    0.053345
 Sum of Mulliken atomic charges =   0.00000

 Dipole moment (field-independent basis, Debye):
    X=             -0.6308    Y=             -0.5437    Z=             -0.8984  Tot=              1.2250
 Quadrupole moment (field-independent basis, Debye-Ang):
   XX=            -68.3946   YY=            -64.6443   ZZ=            -68.5994
   XY=              1.6582   XZ=             -0.8277   YZ=              0.3084

 Summary of Natural Population Analysis:

                                       Natural Population
                Natural  -----------------------------------------------
    Atom  No    Charge         Core      Valence    Rydberg      Total
 -----------------------------------------------------------------------
      C    1   -0.12711      1.99997     4.12713    0.00000     6.12711
      C    2    0.01327      1.99997     3.98676    0.00000     5.98673
      C    3    0.14343      1.99988     3.85669    0.00000     5.85657
      C    4   -0.06478      1.99996     4.06482    0.00000     6.06478
      C    5   -0.00591      1.99995     4.00595    0.00000     6.00591
      C    6   -0.06167      1.99997     4.06170    0.00000     6.06167
      C    7   -0.08828      1.99996     4.08831    0.00000     6.08828
      O    8   -0.33672      1.99999     6.33673    0.00000     8.33672
      C    9    0.02208      1.99996     3.97796    0.00000     5.97792
      C   10   -0.12926      1.99997     4.12929    0.00000     6.12926
      C   11   -0.12934      1.99997     4.12938    0.00000     6.12934
      H   12    0.03699      0.00000     0.96301    0.00000     0.96301
      H   13    0.03489      0.00000     0.96511    0.00000     0.96511
      H   14    0.03485      0.00000     0.96515    0.00000     0.96515
      H   15    0.02840      0.00000     0.97160    0.00000     0.97160
      H   16    0.00522      0.00000     0.99478    0.00000     0.99478
      H   17    0.02975      0.00000     0.97025    0.00000     0.97025
      H   18    0.03374      0.00000     0.96626    0.00000     0.96626
      H   19    0.01937      0.00000     0.98063    0.00000     0.98063
      H   20    0.02402      0.00000     0.97598    0.00000     0.97598
      H   21    0.02924      0.00000     0.97076    0.00000     0.97076
      H   22    0.03051      0.00000     0.96949    0.00000     0.96949
      H   23    0.02477      0.00000     0.97523    0.00000     0.97523
      H   24    0.18871      0.00000     0.81129    0.00000     0.81129
      H   25    0.03133      0.00000     0.96867    0.00000     0.96867
      H   26    0.03314      0.00000     0.96686    0.00000     0.96686
      H   27    0.03687      0.00000     0.96313    0.00000     0.96313
      H   28    0.03652      0.00000     0.96348    0.00000     0.96348
      H   29    0.03207      0.00000     0.96793    0.00000     0.96793
      H   30    0.03768      0.00000     0.96232    0.00000     0.96232
      H   31    0.03621      0.00000     0.96379    0.00000     0.96379
 =======================================================================
   * Total *    0.00000     21.99955    66.00045    0.00000    88.00000

 Normal termination of Gaussian 09 at Tue Aug  3 16:36:49 2021.
