 Gaussian 09, Revision C.01,
 Gaussian 09:  EM64L-G09RevC.01 23-Sep-2011

 ------------------------
 # rhf/STO-3G nmr pop=nbo
 ------------------------

 99/9=1/99;
 -------
 comment
 -------
 Charge =  0 Multiplicity = 1

                         Standard orientation:
 ---------------------------------------------------------------------
 Center     Atomic      Atomic             Coordinates (Angstroms)
 Number     Number       Type             X           Y           Z
 ---------------------------------------------------------------------
      1          6           0        3.659704   -0.444229   -0.008154
      2          6           0        2.197548   -0.104975    0.277807
      3          6           0        0.141508    1.113785   -0.611039
      4          6           0       -0.114042   -1.073196    0.653648
      5          6           0       -0.689848   -0.181326   -0.461856
      6          6           0        1.364086   -1.383985    0.418326
      7          6           0        1.626132    0.798590   -0.825635
      8          8           0        0.030836    1.948113    0.536254
      9          6           0       -2.217280    0.088237   -0.313630
     10          6           0       -2.697576    0.374971    1.112995
     11          6           0       -3.024806   -1.092913   -0.871669
     12          1           0        4.078162   -1.063201    0.792466
     13          1           0        3.765149   -0.992631   -0.950393
     14          1           0        4.263125    0.466981   -0.077230
     15          1           0        2.161227    0.438794    1.230994
     16          1           0       -0.215676    1.689356   -1.473667
     17          1           0       -0.668222   -2.016916    0.708106
     18          1           0       -0.215482   -0.583936    1.629637
     19          1           0       -0.553284   -0.725224   -1.408585
     20          1           0        1.464434   -1.998456   -0.485573
     21          1           0        1.742622   -1.985700    1.253354
     22          1           0        1.753653    0.314882   -1.802492
     23          1           0        2.197597    1.735004   -0.848838
     24          1           0       -0.807794    2.433851    0.462490
     25          1           0       -2.468436    0.960214   -0.931879
     26          1           0       -2.604015   -0.506183    1.756498
     27          1           0       -2.148832    1.195121    1.579863
     28          1           0       -3.756342    0.658125    1.105416
     29          1           0       -2.842548   -2.010936   -0.303803
     30          1           0       -2.765726   -1.282916   -1.918649
     31          1           0       -4.098862   -0.880883   -0.832502
 ---------------------------------------------------------------------

 SCF Done:  E(RHF) =  -459.621041826     A.U. after   10 cycles

      1  C    Isotropic =   220.9873   Anisotropy =    28.5641

      2  C    Isotropic =   216.0108   Anisotropy =     9.0300

      3  C    Isotropic =   186.5638   Anisotropy =    29.8478

      4  C    Isotropic =   219.2207   Anisotropy =    14.4416

      5  C    Isotropic =   209.3185   Anisotropy =    17.0626

      6  C    Isotropic =   215.4117   Anisotropy =    16.8624

      7  C    Isotropic =   214.3455   Anisotropy =    17.8609

      8  O    Isotropic =   367.4856   Anisotropy =    81.9073

      9  C    Isotropic =   212.9896   Anisotropy =    17.0581

     10  C    Isotropic =   222.8189   Anisotropy =    21.6939

     11  C    Isotropic =   220.1223   Anisotropy =    28.4577

     12  H    Isotropic =    32.3915   Anisotropy =    13.8801

     13  H    Isotropic =    32.6976   Anisotropy =    11.7001

     14  H    Isotropic =    32.3761   Anisotropy =    13.7979

     15  H    Isotropic =    32.2602   Anisotropy =    10.3133

     16  H    Isotropic =    31.9931   Anisotropy =    10.5276

     17  H    Isotropic =    32.5281   Anisotropy =    12.4426

     18  H    Isotropic =    32.3543   Anisotropy =     9.1782

     19  H    Isotropic =    32.8993   Anisotropy =     9.2153

     20  H    Isotropic =    32.8554   Anisotropy =    11.1015

     21  H    Isotropic =    32.3307   Anisotropy =    13.9969

     22  H    Isotropic =    32.7382   Anisotropy =    11.1706

     23  H    Isotropic =    31.9128   Anisotropy =    13.3555

     24  H    Isotropic =    34.7129   Anisotropy =    17.6883

     25  H    Isotropic =    32.8499   Anisotropy =    11.2388

     26  H    Isotropic =    32.5882   Anisotropy =    10.0452

     27  H    Isotropic =    32.6691   Anisotropy =    10.0002

     28  H    Isotropic =    32.6341   Anisotropy =    14.6440

     29  H    Isotropic =    32.4432   Anisotropy =    10.0861

     30  H    Isotropic =    32.5625   Anisotropy =    12.6807

     31  H    Isotropic =    32.4853   Anisotropy =    14.3533

 The electronic state is 1-A.
 Alpha  occ. eigenvalues --  -20.23757 -11.08432 -11.04958 -11.03998 -11.03929
 Alpha  occ. eigenvalues --  -11.03476 -11.03181 -11.03159 -11.03155 -11.03094
 Alpha  occ. eigenvalues --  -11.02666  -1.27985  -1.07691  -1.03721  -0.96552
 Alpha  occ. eigenvalues --   -0.95011  -0.89026  -0.87491  -0.79665  -0.77306
 Alpha  occ. eigenvalues --   -0.72851  -0.69879  -0.62251  -0.60946  -0.58960
 Alpha  occ. eigenvalues --   -0.57715  -0.56328  -0.54594  -0.52687  -0.52565
 Alpha  occ. eigenvalues --   -0.50650  -0.50310  -0.49035  -0.47615  -0.46051
 Alpha  occ. eigenvalues --   -0.45092  -0.43730  -0.43671  -0.42208  -0.41576
 Alpha  occ. eigenvalues --   -0.39313  -0.39101  -0.36213  -0.32579
 Alpha virt. eigenvalues --    0.52910   0.55766   0.58338   0.60127   0.60747
 Alpha virt. eigenvalues --    0.61479   0.61995   0.65211   0.66371   0.67623
 Alpha virt. eigenvalues --    0.69072   0.70307   0.71081   0.72054   0.72413

 Mulliken atomic charges:
              1
     1  C   -0.172108
     2  C   -0.023000
     3  C    0.078105
     4  C   -0.101580
     5  C   -0.039444
     6  C   -0.098806
     7  C   -0.103973
     8  O   -0.316323
     9  C   -0.023100
    10  C   -0.176821
    11  C   -0.171252
    12  H    0.053400
    13  H    0.050942
    14  H    0.053595
    15  H    0.056663
    16  H    0.038491
    17  H    0.048005
    18  H    0.056560
    19  H    0.044981
    20  H    0.043924
    21  H    0.049393
    22  H    0.048941
    23  H    0.057410
    24  H    0.178901
    25  H    0.041073
    26  H    0.057477
    27  H    0.056305
    28  H    0.053188
    29  H    0.053918
    30  H    0.051898
    31  H    0.053234
 Sum of Mulliken atomic charges =   0.00000

 Dipole moment (field-independent basis, Debye):
    X=             -0.9168    Y=             -0.1055    Z=             -0.9217  Tot=              1.3043
 Quadrupole moment (field-independent basis, Debye-Ang):
   XX=            -67.4526   YY=            -67.3093   ZZ=            -67.8111
   XY=             -2.4601   XZ=             -0.4455   YZ=             -1.6626

 Summary of Natural Population Analysis:

                                       Natural Population
                Natural  -----------------------------------------------
    Atom  No    Charge         Core      Valence    Rydberg      Total
 -----------------------------------------------------------------------
      C    1   -0.12716      1.99997     4.12719    0.00000     6.12716
      C    2    0.01406      1.99997     3.98597    0.00000     5.98594
      C    3    0.14571      1.99989     3.85440    0.00000     5.85429
      C    4   -0.06447      1.99996     4.06451    0.00000     6.06447
      C    5   -0.01977      1.99995     4.01982    0.00000     6.01977
      C    6   -0.06097      1.99996     4.06101    0.00000     6.06097
      C    7   -0.07944      1.99996     4.07948    0.00000     6.07944
      O    8   -0.33762      1.99999     6.33763    0.00000     8.33762
      C    9    0.01887      1.99996     3.98117    0.00000     5.98113
      C   10   -0.13296      1.99997     4.13299    0.00000     6.13296
      C   11   -0.12645      1.99997     4.12648    0.00000     6.12645
      H   12    0.03622      0.00000     0.96378    0.00000     0.96378
      H   13    0.03382      0.00000     0.96618    0.00000     0.96618
      H   14    0.03634      0.00000     0.96366    0.00000     0.96366
      H   15    0.03156      0.00000     0.96844    0.00000     0.96844
      H   16    0.00366      0.00000     0.99634    0.00000     0.99634
      H   17    0.02733      0.00000     0.97267    0.00000     0.97267
      H   18    0.03481      0.00000     0.96519    0.00000     0.96519
      H   19    0.02047      0.00000     0.97953    0.00000     0.97953
      H   20    0.02332      0.00000     0.97668    0.00000     0.97668
      H   21    0.02874      0.00000     0.97126    0.00000     0.97126
      H   22    0.02866      0.00000     0.97134    0.00000     0.97134
      H   23    0.03621      0.00000     0.96379    0.00000     0.96379
      H   24    0.19164      0.00000     0.80836    0.00000     0.80836
      H   25    0.01632      0.00000     0.98368    0.00000     0.98368
      H   26    0.04012      0.00000     0.95988    0.00000     0.95988
      H   27    0.03842      0.00000     0.96158    0.00000     0.96158
      H   28    0.03627      0.00000     0.96373    0.00000     0.96373
      H   29    0.03617      0.00000     0.96383    0.00000     0.96383
      H   30    0.03439      0.00000     0.96561    0.00000     0.96561
      H   31    0.03573      0.00000     0.96427    0.00000     0.96427
 =======================================================================
   * Total *    0.00000     21.99955    66.00045    0.00000    88.00000

 Normal termination of Gaussian 09 at Tue Aug  3 16:37:31 2021.
