 Gaussian 09, Revision C.01,
 Gaussian 09:  EM64L-G09RevC.01 23-Sep-2011

 ------------------------
 # rhf/STO-3G nmr pop=nbo
 ------------------------

 99/9=1/99;
 -------
 comment
 -------
 Charge =  0 Multiplicity = 1

                         Standard orientation:
 ---------------------------------------------------------------------
 Center     Atomic      Atomic             Coordinates (Angstroms)
 Number     Number       Type             X           Y           Z
 ---------------------------------------------------------------------
      1          6           0        3.478810    0.462126   -0.125783
      2          6           0        2.216190   -0.159010    0.473422
      3          6           0        0.083246    0.876140   -0.465085
      4          6           0        0.280090   -1.656942   -0.149466
      5          6           0       -0.638789   -0.492172   -0.595279
      6          6           0        1.752780   -1.346164   -0.386038
      7          6           0        1.111332    0.893487    0.667606
      8          8           0       -0.824524    1.955370   -0.309923
      9          6           0       -2.051151   -0.649462    0.045043
     10          6           0       -3.146289    0.065172   -0.755997
     11          6           0       -2.130027   -0.245967    1.519317
     12          1           0        4.265093   -0.291458   -0.240929
     13          1           0        3.279401    0.899411   -1.109930
     14          1           0        3.867952    1.253660    0.523371
     15          1           0        2.484306   -0.538060    1.468734
     16          1           0        0.616057    1.063352   -1.406850
     17          1           0        0.003367   -2.563945   -0.700914
     18          1           0        0.137327   -1.886821    0.912562
     19          1           0       -0.789216   -0.633334   -1.676600
     20          1           0        1.909341   -1.139712   -1.452624
     21          1           0        2.361846   -2.226544   -0.148151
     22          1           0        1.539438    1.897460    0.780436
     23          1           0        0.596258    0.703987    1.617942
     24          1           0       -0.307022    2.777951   -0.281202
     25          1           0       -2.302665   -1.718712   -0.003224
     26          1           0       -3.078013    1.153370   -0.685761
     27          1           0       -3.102642   -0.213485   -1.813990
     28          1           0       -4.136084   -0.221354   -0.382863
     29          1           0       -1.976295    0.827211    1.662530
     30          1           0       -1.391534   -0.779895    2.123769
     31          1           0       -3.117870   -0.489280    1.926641
 ---------------------------------------------------------------------

 SCF Done:  E(RHF) =  -459.608311578     A.U. after   10 cycles

      1  C    Isotropic =   220.8732   Anisotropy =    27.0605

      2  C    Isotropic =   216.2042   Anisotropy =     9.7020

      3  C    Isotropic =   188.9217   Anisotropy =    43.5294

      4  C    Isotropic =   216.9107   Anisotropy =    18.0485

      5  C    Isotropic =   209.9687   Anisotropy =    17.8322

      6  C    Isotropic =   217.0533   Anisotropy =    16.8705

      7  C    Isotropic =   214.9008   Anisotropy =    19.0093

      8  O    Isotropic =   359.3050   Anisotropy =   103.4388

      9  C    Isotropic =   212.3272   Anisotropy =    18.1701

     10  C    Isotropic =   220.1314   Anisotropy =    28.7602

     11  C    Isotropic =   224.0594   Anisotropy =    19.1189

     12  H    Isotropic =    32.4692   Anisotropy =    14.0455

     13  H    Isotropic =    32.7065   Anisotropy =    10.2217

     14  H    Isotropic =    32.5905   Anisotropy =    13.8586

     15  H    Isotropic =    32.3991   Anisotropy =    13.1668

     16  H    Isotropic =    31.9210   Anisotropy =     8.9124

     17  H    Isotropic =    32.3389   Anisotropy =    14.4364

     18  H    Isotropic =    32.5720   Anisotropy =     9.3393

     19  H    Isotropic =    32.0711   Anisotropy =    11.4592

     20  H    Isotropic =    32.8877   Anisotropy =    10.6866

     21  H    Isotropic =    32.3739   Anisotropy =    14.7815

     22  H    Isotropic =    33.0950   Anisotropy =    12.0227

     23  H    Isotropic =    32.1669   Anisotropy =     9.8751

     24  H    Isotropic =    35.2526   Anisotropy =    19.3957

     25  H    Isotropic =    32.4886   Anisotropy =    12.0587

     26  H    Isotropic =    31.8045   Anisotropy =     9.4423

     27  H    Isotropic =    32.4515   Anisotropy =    12.6918

     28  H    Isotropic =    32.4323   Anisotropy =    14.8516

     29  H    Isotropic =    32.2628   Anisotropy =     8.5522

     30  H    Isotropic =    32.5918   Anisotropy =     9.9445

     31  H    Isotropic =    32.5373   Anisotropy =    15.0621

 The electronic state is 1-A.
 Alpha  occ. eigenvalues --  -20.23930 -11.08640 -11.04765 -11.04147 -11.04101
 Alpha  occ. eigenvalues --  -11.03738 -11.03575 -11.03509 -11.03356 -11.02127
 Alpha  occ. eigenvalues --  -11.01639  -1.28089  -1.08139  -1.03075  -0.96789
 Alpha  occ. eigenvalues --   -0.94424  -0.88354  -0.87595  -0.80424  -0.77993
 Alpha  occ. eigenvalues --   -0.72408  -0.67726  -0.64539  -0.61358  -0.57918
 Alpha  occ. eigenvalues --   -0.56725  -0.55983  -0.54664  -0.53110  -0.51766
 Alpha  occ. eigenvalues --   -0.51445  -0.49711  -0.48790  -0.47313  -0.46515
 Alpha  occ. eigenvalues --   -0.45391  -0.44719  -0.42632  -0.41785  -0.40423
 Alpha  occ. eigenvalues --   -0.39738  -0.38550  -0.35652  -0.32932
 Alpha virt. eigenvalues --    0.52816   0.55305   0.56786   0.59712   0.60641
 Alpha virt. eigenvalues --    0.61425   0.63112   0.65055   0.65507   0.67012
 Alpha virt. eigenvalues --    0.68311   0.69368   0.69598   0.71281   0.72447

 Mulliken atomic charges:
              1
     1  C   -0.171276
     2  C   -0.024303
     3  C    0.078878
     4  C   -0.100541
     5  C   -0.032988
     6  C   -0.101347
     7  C   -0.117328
     8  O   -0.314437
     9  C   -0.013301
    10  C   -0.174444
    11  C   -0.176709
    12  H    0.054427
    13  H    0.050879
    14  H    0.052620
    15  H    0.048633
    16  H    0.037127
    17  H    0.051001
    18  H    0.048820
    19  H    0.047570
    20  H    0.047593
    21  H    0.051664
    22  H    0.045159
    23  H    0.055349
    24  H    0.179215
    25  H    0.045466
    26  H    0.069987
    27  H    0.048612
    28  H    0.048522
    29  H    0.064637
    30  H    0.048425
    31  H    0.052092
 Sum of Mulliken atomic charges =   0.00000

 Dipole moment (field-independent basis, Debye):
    X=              1.3792    Y=              0.0274    Z=             -0.0159  Tot=              1.3796
 Quadrupole moment (field-independent basis, Debye-Ang):
   XX=            -69.9954   YY=            -65.1073   ZZ=            -67.5119
   XY=              2.5461   XZ=             -0.3847   YZ=             -0.0088

 Summary of Natural Population Analysis:

                                       Natural Population
                Natural  -----------------------------------------------
    Atom  No    Charge         Core      Valence    Rydberg      Total
 -----------------------------------------------------------------------
      C    1   -0.12624      1.99998     4.12627    0.00000     6.12624
      C    2    0.01491      1.99997     3.98513    0.00000     5.98509
      C    3    0.14680      1.99989     3.85331    0.00000     5.85320
      C    4   -0.06293      1.99996     4.06297    0.00000     6.06293
      C    5   -0.01000      1.99995     4.01006    0.00000     6.01000
      C    6   -0.06420      1.99996     4.06424    0.00000     6.06420
      C    7   -0.09466      1.99996     4.09470    0.00000     6.09466
      O    8   -0.33536      1.99999     6.33537    0.00000     8.33536
      C    9    0.02799      1.99996     3.97205    0.00000     5.97201
      C   10   -0.13091      1.99997     4.13094    0.00000     6.13091
      C   11   -0.13318      1.99997     4.13321    0.00000     6.13318
      H   12    0.03701      0.00000     0.96299    0.00000     0.96299
      H   13    0.03367      0.00000     0.96633    0.00000     0.96633
      H   14    0.03527      0.00000     0.96473    0.00000     0.96473
      H   15    0.02419      0.00000     0.97581    0.00000     0.97581
      H   16    0.00142      0.00000     0.99858    0.00000     0.99858
      H   17    0.03002      0.00000     0.96998    0.00000     0.96998
      H   18    0.02726      0.00000     0.97274    0.00000     0.97274
      H   19    0.02142      0.00000     0.97858    0.00000     0.97858
      H   20    0.02692      0.00000     0.97308    0.00000     0.97308
      H   21    0.03113      0.00000     0.96887    0.00000     0.96887
      H   22    0.02574      0.00000     0.97426    0.00000     0.97426
      H   23    0.03435      0.00000     0.96565    0.00000     0.96565
      H   24    0.19199      0.00000     0.80801    0.00000     0.80801
      H   25    0.02019      0.00000     0.97981    0.00000     0.97981
      H   26    0.05048      0.00000     0.94952    0.00000     0.94952
      H   27    0.03178      0.00000     0.96822    0.00000     0.96822
      H   28    0.03176      0.00000     0.96824    0.00000     0.96824
      H   29    0.04611      0.00000     0.95389    0.00000     0.95389
      H   30    0.03165      0.00000     0.96835    0.00000     0.96835
      H   31    0.03543      0.00000     0.96457    0.00000     0.96457
 =======================================================================
   * Total *    0.00000     21.99954    66.00046    0.00000    88.00000

 Normal termination of Gaussian 09 at Sun May 24 02:10:00 2020.
