 Gaussian 09, Revision C.01,
 Gaussian 09:  EM64L-G09RevC.01 23-Sep-2011

 ------------------------
 # rhf/STO-3G nmr pop=nbo
 ------------------------

 99/9=1/99;
 -------
 comment
 -------
 Charge =  0 Multiplicity = 1

                         Standard orientation:
 ---------------------------------------------------------------------
 Center     Atomic      Atomic             Coordinates (Angstroms)
 Number     Number       Type             X           Y           Z
 ---------------------------------------------------------------------
      1          6           0        3.506547   -0.120096   -0.020097
      2          6           0        2.115632   -0.378719    0.560938
      3          6           0        0.304208    0.974866   -0.613783
      4          6           0       -0.081248   -1.488898   -0.024684
      5          6           0       -0.694601   -0.213383   -0.646247
      6          6           0        1.433488   -1.530875   -0.194732
      7          6           0        1.265950    0.903485    0.572747
      8          8           0       -0.371392    2.225989   -0.628858
      9          6           0       -2.129523    0.097893   -0.122966
     10          6           0       -2.192064    0.519941    1.347602
     11          6           0       -3.081489   -1.082797   -0.354125
     12          1           0        4.109752   -1.034042   -0.004745
     13          1           0        3.446813    0.231217   -1.055731
     14          1           0        4.036642    0.639239    0.564514
     15          1           0        2.255006   -0.687322    1.605723
     16          1           0        0.899832    0.940774   -1.535619
     17          1           0       -0.520856   -2.374407   -0.499068
     18          1           0       -0.313359   -1.558682    1.043473
     19          1           0       -0.828134   -0.432114   -1.717387
     20          1           0        1.674857   -1.490690   -1.264788
     21          1           0        1.822410   -2.487518    0.174444
     22          1           0        1.900465    1.798009    0.604624
     23          1           0        0.687951    0.940476    1.504557
     24          1           0        0.303033    2.926226   -0.641290
     25          1           0       -2.525214    0.931875   -0.718024
     26          1           0       -1.833314   -0.267170    2.017004
     27          1           0       -1.604869    1.422618    1.534876
     28          1           0       -3.225076    0.747085    1.634627
     29          1           0       -2.824853   -1.941496    0.274597
     30          1           0       -3.058977   -1.403747   -1.400785
     31          1           0       -4.112369   -0.796742   -0.118055
 ---------------------------------------------------------------------

 SCF Done:  E(RHF) =  -459.609776781     A.U. after   10 cycles

      1  C    Isotropic =   220.8657   Anisotropy =    27.1367

      2  C    Isotropic =   216.2274   Anisotropy =     9.7877

      3  C    Isotropic =   189.3844   Anisotropy =    42.7199

      4  C    Isotropic =   219.5146   Anisotropy =    12.7791

      5  C    Isotropic =   210.3677   Anisotropy =    17.1515

      6  C    Isotropic =   217.0425   Anisotropy =    17.3775

      7  C    Isotropic =   215.0534   Anisotropy =    18.4879

      8  O    Isotropic =   358.1834   Anisotropy =   101.1773

      9  C    Isotropic =   214.7297   Anisotropy =    13.4006

     10  C    Isotropic =   223.9828   Anisotropy =    20.2008

     11  C    Isotropic =   221.1036   Anisotropy =    26.4605

     12  H    Isotropic =    32.4725   Anisotropy =    13.9807

     13  H    Isotropic =    32.7000   Anisotropy =    10.3070

     14  H    Isotropic =    32.5881   Anisotropy =    13.9218

     15  H    Isotropic =    32.4101   Anisotropy =    13.0628

     16  H    Isotropic =    31.9194   Anisotropy =     9.2290

     17  H    Isotropic =    32.4348   Anisotropy =    13.6055

     18  H    Isotropic =    32.6977   Anisotropy =     9.2617

     19  H    Isotropic =    32.0096   Anisotropy =    11.5870

     20  H    Isotropic =    32.9002   Anisotropy =    10.7548

     21  H    Isotropic =    32.3772   Anisotropy =    14.5623

     22  H    Isotropic =    33.0802   Anisotropy =    12.2597

     23  H    Isotropic =    32.1880   Anisotropy =     9.9682

     24  H    Isotropic =    35.1720   Anisotropy =    19.4897

     25  H    Isotropic =    31.7721   Anisotropy =    11.8491

     26  H    Isotropic =    32.7536   Anisotropy =     9.2836

     27  H    Isotropic =    32.2421   Anisotropy =     9.6675

     28  H    Isotropic =    32.5381   Anisotropy =    14.8637

     29  H    Isotropic =    32.5776   Anisotropy =     9.7273

     30  H    Isotropic =    32.5043   Anisotropy =    12.9034

     31  H    Isotropic =    32.4107   Anisotropy =    14.7257

 The electronic state is 1-A.
 Alpha  occ. eigenvalues --  -20.23849 -11.08487 -11.04763 -11.04119 -11.04002
 Alpha  occ. eigenvalues --  -11.03756 -11.03573 -11.03509 -11.03346 -11.02523
 Alpha  occ. eigenvalues --  -11.02119  -1.27911  -1.08153  -1.03239  -0.96705
 Alpha  occ. eigenvalues --   -0.94511  -0.88389  -0.87859  -0.80459  -0.78324
 Alpha  occ. eigenvalues --   -0.72470  -0.67240  -0.63843  -0.61441  -0.59443
 Alpha  occ. eigenvalues --   -0.57181  -0.55477  -0.54565  -0.52898  -0.51910
 Alpha  occ. eigenvalues --   -0.51267  -0.50237  -0.49106  -0.47370  -0.46971
 Alpha  occ. eigenvalues --   -0.45396  -0.43915  -0.42726  -0.41751  -0.41009
 Alpha  occ. eigenvalues --   -0.39826  -0.38430  -0.35771  -0.32938
 Alpha virt. eigenvalues --    0.52880   0.55694   0.56634   0.60329   0.60601
 Alpha virt. eigenvalues --    0.61248   0.62298   0.64895   0.65617   0.67272
 Alpha virt. eigenvalues --    0.67968   0.69242   0.70140   0.71026   0.72214

 Mulliken atomic charges:
              1
     1  C   -0.171255
     2  C   -0.024206
     3  C    0.077997
     4  C   -0.102838
     5  C   -0.032520
     6  C   -0.100541
     7  C   -0.117632
     8  O   -0.313610
     9  C   -0.016572
    10  C   -0.176142
    11  C   -0.173260
    12  H    0.054366
    13  H    0.050954
    14  H    0.052646
    15  H    0.048653
    16  H    0.036809
    17  H    0.052828
    18  H    0.049420
    19  H    0.046466
    20  H    0.047577
    21  H    0.051659
    22  H    0.045216
    23  H    0.055092
    24  H    0.178389
    25  H    0.060521
    26  H    0.048220
    27  H    0.061780
    28  H    0.052631
    29  H    0.052092
    30  H    0.051371
    31  H    0.053887
 Sum of Mulliken atomic charges =   0.00000

 Dipole moment (field-independent basis, Debye):
    X=              1.3118    Y=             -0.2316    Z=              0.0385  Tot=              1.3327
 Quadrupole moment (field-independent basis, Debye-Ang):
   XX=            -68.4587   YY=            -66.7403   ZZ=            -67.4139
   XY=              3.0806   XZ=             -0.6228   YZ=             -0.0234

 Summary of Natural Population Analysis:

                                       Natural Population
                Natural  -----------------------------------------------
    Atom  No    Charge         Core      Valence    Rydberg      Total
 -----------------------------------------------------------------------
      C    1   -0.12624      1.99998     4.12626    0.00000     6.12624
      C    2    0.01501      1.99997     3.98502    0.00000     5.98499
      C    3    0.14594      1.99989     3.85417    0.00000     5.85406
      C    4   -0.06578      1.99996     4.06583    0.00000     6.06578
      C    5   -0.00956      1.99995     4.00962    0.00000     6.00956
      C    6   -0.06287      1.99996     4.06291    0.00000     6.06287
      C    7   -0.09501      1.99996     4.09505    0.00000     6.09501
      O    8   -0.33450      1.99999     6.33451    0.00000     8.33450
      C    9    0.02350      1.99996     3.97654    0.00000     5.97650
      C   10   -0.13242      1.99997     4.13245    0.00000     6.13242
      C   11   -0.12881      1.99997     4.12884    0.00000     6.12881
      H   12    0.03694      0.00000     0.96306    0.00000     0.96306
      H   13    0.03373      0.00000     0.96627    0.00000     0.96627
      H   14    0.03530      0.00000     0.96470    0.00000     0.96470
      H   15    0.02418      0.00000     0.97582    0.00000     0.97582
      H   16    0.00107      0.00000     0.99893    0.00000     0.99893
      H   17    0.03197      0.00000     0.96803    0.00000     0.96803
      H   18    0.02806      0.00000     0.97194    0.00000     0.97194
      H   19    0.02056      0.00000     0.97944    0.00000     0.97944
      H   20    0.02679      0.00000     0.97321    0.00000     0.97321
      H   21    0.03101      0.00000     0.96899    0.00000     0.96899
      H   22    0.02581      0.00000     0.97419    0.00000     0.97419
      H   23    0.03417      0.00000     0.96583    0.00000     0.96583
      H   24    0.19104      0.00000     0.80896    0.00000     0.80896
      H   25    0.03398      0.00000     0.96602    0.00000     0.96602
      H   26    0.03132      0.00000     0.96868    0.00000     0.96868
      H   27    0.04355      0.00000     0.95645    0.00000     0.95645
      H   28    0.03595      0.00000     0.96405    0.00000     0.96405
      H   29    0.03456      0.00000     0.96544    0.00000     0.96544
      H   30    0.03409      0.00000     0.96591    0.00000     0.96591
      H   31    0.03665      0.00000     0.96335    0.00000     0.96335
 =======================================================================
   * Total *    0.00000     21.99954    66.00046    0.00000    88.00000

 Normal termination of Gaussian 09 at Tue Aug  3 16:37:51 2021.
