 Gaussian 09, Revision C.01,
 Gaussian 09:  EM64L-G09RevC.01 23-Sep-2011

 ------------------------
 # rhf/STO-3G nmr pop=nbo
 ------------------------

 99/9=1/99;
 -------
 comment
 -------
 Charge =  0 Multiplicity = 1

                         Standard orientation:
 ---------------------------------------------------------------------
 Center     Atomic      Atomic             Coordinates (Angstroms)
 Number     Number       Type             X           Y           Z
 ---------------------------------------------------------------------
      1          6           0       -2.628959   -0.285663    1.482586
      2          6           0       -2.390734   -0.221920   -0.028626
      3          6           0       -0.213038    1.141777    0.019821
      4          6           0       -0.161993   -1.207272   -0.896357
      5          6           0        0.504670   -0.235337    0.091557
      6          6           0       -1.636230   -1.457343   -0.547206
      7          6           0       -1.677443    1.064796   -0.436110
      8          8           0        0.460860    2.018249   -0.885184
      9          6           0        2.051829   -0.142853   -0.077123
     10          6           0        2.738091   -1.513324   -0.001138
     11          6           0        2.676573    0.765130    0.992773
     12          1           0       -3.193856    0.589858    1.820327
     13          1           0       -3.213135   -1.175291    1.741800
     14          1           0       -1.696380   -0.321942    2.051881
     15          1           0       -3.385088   -0.218629   -0.494921
     16          1           0       -0.163718    1.606614    1.012037
     17          1           0        0.337436   -2.180588   -0.908970
     18          1           0       -0.085608   -0.805321   -1.914768
     19          1           0        0.322151   -0.647225    1.094023
     20          1           0       -1.701490   -2.272950    0.183910
     21          1           0       -2.135361   -1.829935   -1.450993
     22          1           0       -2.218708    1.941605   -0.057858
     23          1           0       -1.723679    1.157533   -1.530500
     24          1           0        0.010502    2.879443   -0.849256
     25          1           0        2.283239    0.280405   -1.062735
     26          1           0        2.447592   -2.053281    0.906246
     27          1           0        2.491685   -2.133448   -0.867848
     28          1           0        3.828413   -1.404787    0.005352
     29          1           0        2.460459    0.392513    1.999984
     30          1           0        2.306944    1.792015    0.925769
     31          1           0        3.765134    0.809467    0.876930
 ---------------------------------------------------------------------

 SCF Done:  E(RHF) =  -459.609180897     A.U. after   10 cycles

      1  C    Isotropic =   220.6409   Anisotropy =    26.8184

      2  C    Isotropic =   217.6663   Anisotropy =     4.4698

      3  C    Isotropic =   189.3747   Anisotropy =    38.3553

      4  C    Isotropic =   218.9824   Anisotropy =    14.2954

      5  C    Isotropic =   209.5324   Anisotropy =    18.2048

      6  C    Isotropic =   216.6982   Anisotropy =    16.5425

      7  C    Isotropic =   215.1428   Anisotropy =    19.2784

      8  O    Isotropic =   354.0650   Anisotropy =    78.5000

      9  C    Isotropic =   214.2475   Anisotropy =    15.0544

     10  C    Isotropic =   221.3105   Anisotropy =    25.3596

     11  C    Isotropic =   220.8593   Anisotropy =    26.1590

     12  H    Isotropic =    32.6578   Anisotropy =    14.0241

     13  H    Isotropic =    32.5135   Anisotropy =    14.1503

     14  H    Isotropic =    32.7365   Anisotropy =     7.8345

     15  H    Isotropic =    32.3691   Anisotropy =    15.3103

     16  H    Isotropic =    31.8144   Anisotropy =     8.3629

     17  H    Isotropic =    32.3803   Anisotropy =    12.7064

     18  H    Isotropic =    32.4824   Anisotropy =    11.1011

     19  H    Isotropic =    32.8513   Anisotropy =     7.6384

     20  H    Isotropic =    32.5877   Anisotropy =    12.3209

     21  H    Isotropic =    32.0792   Anisotropy =    15.0600

     22  H    Isotropic =    32.6291   Anisotropy =    13.3476

     23  H    Isotropic =    32.2790   Anisotropy =    11.7237

     24  H    Isotropic =    34.9133   Anisotropy =    19.4314

     25  H    Isotropic =    32.0170   Anisotropy =     9.9336

     26  H    Isotropic =    32.6954   Anisotropy =    10.9029

     27  H    Isotropic =    32.3369   Anisotropy =    11.5310

     28  H    Isotropic =    32.4622   Anisotropy =    14.2706

     29  H    Isotropic =    32.6662   Anisotropy =    10.9890

     30  H    Isotropic =    32.0169   Anisotropy =    10.0894

     31  H    Isotropic =    32.4374   Anisotropy =    14.5263

 The electronic state is 1-A.
 Alpha  occ. eigenvalues --  -20.23594 -11.08423 -11.04713 -11.04218 -11.04068
 Alpha  occ. eigenvalues --  -11.03734 -11.03308 -11.03245 -11.03099 -11.02546
 Alpha  occ. eigenvalues --  -11.02207  -1.27708  -1.07892  -1.03261  -0.96423
 Alpha  occ. eigenvalues --   -0.94286  -0.88662  -0.88101  -0.79562  -0.78291
 Alpha  occ. eigenvalues --   -0.72417  -0.68324  -0.63627  -0.61508  -0.57928
 Alpha  occ. eigenvalues --   -0.56950  -0.55958  -0.55187  -0.52766  -0.51779
 Alpha  occ. eigenvalues --   -0.50843  -0.49800  -0.48965  -0.47559  -0.47154
 Alpha  occ. eigenvalues --   -0.45051  -0.43595  -0.42819  -0.41805  -0.41267
 Alpha  occ. eigenvalues --   -0.39306  -0.38178  -0.35966  -0.33053
 Alpha virt. eigenvalues --    0.52142   0.56180   0.57230   0.59148   0.61227
 Alpha virt. eigenvalues --    0.61955   0.62131   0.64277   0.64917   0.66490
 Alpha virt. eigenvalues --    0.68108   0.69640   0.70369   0.71899   0.72325

 Mulliken atomic charges:
              1
     1  C   -0.173649
     2  C   -0.025177
     3  C    0.075621
     4  C   -0.102722
     5  C   -0.031384
     6  C   -0.101935
     7  C   -0.115021
     8  O   -0.313851
     9  C   -0.016665
    10  C   -0.173428
    11  C   -0.173185
    12  H    0.052264
    13  H    0.054328
    14  H    0.052609
    15  H    0.049534
    16  H    0.039592
    17  H    0.053474
    18  H    0.050755
    19  H    0.044769
    20  H    0.048699
    21  H    0.049510
    22  H    0.045998
    23  H    0.056040
    24  H    0.175956
    25  H    0.059936
    26  H    0.050277
    27  H    0.053759
    28  H    0.054401
    29  H    0.047629
    30  H    0.059537
    31  H    0.052327
 Sum of Mulliken atomic charges =   0.00000

 Dipole moment (field-independent basis, Debye):
    X=             -1.1340    Y=              0.2667    Z=              0.6034  Tot=              1.3119
 Quadrupole moment (field-independent basis, Debye-Ang):
   XX=            -68.3140   YY=            -64.8935   ZZ=            -68.5304
   XY=             -2.3691   XZ=              1.0659   YZ=              0.7052

 Summary of Natural Population Analysis:

                                       Natural Population
                Natural  -----------------------------------------------
    Atom  No    Charge         Core      Valence    Rydberg      Total
 -----------------------------------------------------------------------
      C    1   -0.12830      1.99997     4.12832    0.00000     6.12830
      C    2    0.01283      1.99997     3.98720    0.00000     5.98717
      C    3    0.14501      1.99988     3.85511    0.00000     5.85499
      C    4   -0.06625      1.99996     4.06629    0.00000     6.06625
      C    5   -0.00871      1.99995     4.00876    0.00000     6.00871
      C    6   -0.06385      1.99996     4.06389    0.00000     6.06385
      C    7   -0.09175      1.99996     4.09179    0.00000     6.09175
      O    8   -0.33543      1.99999     6.33544    0.00000     8.33543
      C    9    0.02426      1.99996     3.97579    0.00000     5.97574
      C   10   -0.12904      1.99997     4.12907    0.00000     6.12904
      C   11   -0.12872      1.99997     4.12875    0.00000     6.12872
      H   12    0.03506      0.00000     0.96494    0.00000     0.96494
      H   13    0.03708      0.00000     0.96292    0.00000     0.96292
      H   14    0.03500      0.00000     0.96500    0.00000     0.96500
      H   15    0.02554      0.00000     0.97446    0.00000     0.97446
      H   16    0.00342      0.00000     0.99658    0.00000     0.99658
      H   17    0.03215      0.00000     0.96785    0.00000     0.96785
      H   18    0.02942      0.00000     0.97058    0.00000     0.97058
      H   19    0.01925      0.00000     0.98075    0.00000     0.98075
      H   20    0.02774      0.00000     0.97226    0.00000     0.97226
      H   21    0.02875      0.00000     0.97125    0.00000     0.97125
      H   22    0.02610      0.00000     0.97390    0.00000     0.97390
      H   23    0.03559      0.00000     0.96441    0.00000     0.96441
      H   24    0.18852      0.00000     0.81148    0.00000     0.81148
      H   25    0.03304      0.00000     0.96696    0.00000     0.96696
      H   26    0.03307      0.00000     0.96693    0.00000     0.96693
      H   27    0.03620      0.00000     0.96380    0.00000     0.96380
      H   28    0.03722      0.00000     0.96278    0.00000     0.96278
      H   29    0.03055      0.00000     0.96945    0.00000     0.96945
      H   30    0.04109      0.00000     0.95891    0.00000     0.95891
      H   31    0.03518      0.00000     0.96482    0.00000     0.96482
 =======================================================================
   * Total *    0.00000     21.99953    66.00047    0.00000    88.00000

 Normal termination of Gaussian 09 at Sun May 24 02:09:40 2020.
