 Gaussian 09, Revision C.01,
 Gaussian 09:  EM64L-G09RevC.01 23-Sep-2011

 ------------------------
 # rhf/STO-3G nmr pop=nbo
 ------------------------

 99/9=1/99;
 -------
 comment
 -------
 Charge =  0 Multiplicity = 1

                         Standard orientation:
 ---------------------------------------------------------------------
 Center     Atomic      Atomic             Coordinates (Angstroms)
 Number     Number       Type             X           Y           Z
 ---------------------------------------------------------------------
      1          6           0       -3.687353   -0.081799   -0.149581
      2          6           0       -2.209957    0.008932    0.231444
      3          6           0        0.089559   -1.055533   -0.127266
      4          6           0       -0.136410    1.465361    0.131012
      5          6           0        0.660349    0.322993   -0.529353
      6          6           0       -1.628749    1.365189   -0.183802
      7          6           0       -1.417259   -1.144057   -0.403722
      8          8           0        0.329636   -1.361186    1.241735
      9          6           0        2.194746    0.505925   -0.335588
     10          6           0        2.993341   -0.537603   -1.124353
     11          6           0        2.684776    0.534095    1.114138
     12          1           0       -3.825969    0.000892   -1.232924
     13          1           0       -4.113659   -1.036995    0.174573
     14          1           0       -4.260929    0.720041    0.327196
     15          1           0       -2.144967   -0.076752    1.323676
     16          1           0        0.580712   -1.841577   -0.710383
     17          1           0        0.236504    2.432772   -0.226343
     18          1           0       -0.005790    1.458159    1.218559
     19          1           0        0.485237    0.418051   -1.612279
     20          1           0       -1.781828    1.524803   -1.258908
     21          1           0       -2.160514    2.172698    0.333713
     22          1           0       -1.579264   -1.143646   -1.489353
     23          1           0       -1.803307   -2.095725   -0.017546
     24          1           0       -0.070004   -0.668072    1.791619
     25          1           0        2.447704    1.484224   -0.768383
     26          1           0        2.885587   -1.539375   -0.696481
     27          1           0        2.668084   -0.572255   -2.169302
     28          1           0        4.060431   -0.289431   -1.118091
     29          1           0        2.581249   -0.437577    1.604221
     30          1           0        2.156314    1.283216    1.709428
     31          1           0        3.749069    0.795014    1.145559
 ---------------------------------------------------------------------

 SCF Done:  E(RHF) =  -459.620319690     A.U. after   10 cycles

      1  C    Isotropic =   221.1003   Anisotropy =    28.5556

      2  C    Isotropic =   217.0712   Anisotropy =    10.2475

      3  C    Isotropic =   191.1417   Anisotropy =    36.2576

      4  C    Isotropic =   218.7258   Anisotropy =    17.3615

      5  C    Isotropic =   210.2467   Anisotropy =    16.5565

      6  C    Isotropic =   215.8184   Anisotropy =    16.4304

      7  C    Isotropic =   214.2343   Anisotropy =    17.8780

      8  O    Isotropic =   366.9204   Anisotropy =    65.3448

      9  C    Isotropic =   212.7156   Anisotropy =    17.8714

     10  C    Isotropic =   221.4076   Anisotropy =    25.8043

     11  C    Isotropic =   224.0322   Anisotropy =    21.0032

     12  H    Isotropic =    32.7089   Anisotropy =    11.7884

     13  H    Isotropic =    32.4480   Anisotropy =    13.8751

     14  H    Isotropic =    32.4824   Anisotropy =    13.7694

     15  H    Isotropic =    33.1375   Anisotropy =    10.1309

     16  H    Isotropic =    31.3488   Anisotropy =    10.8128

     17  H    Isotropic =    32.5816   Anisotropy =    13.3211

     18  H    Isotropic =    33.0453   Anisotropy =     9.3099

     19  H    Isotropic =    32.8001   Anisotropy =     9.9042

     20  H    Isotropic =    32.8502   Anisotropy =    11.3157

     21  H    Isotropic =    32.5054   Anisotropy =    13.9765

     22  H    Isotropic =    32.7494   Anisotropy =    11.4646

     23  H    Isotropic =    32.0671   Anisotropy =    13.5648

     24  H    Isotropic =    34.9583   Anisotropy =    11.5965

     25  H    Isotropic =    32.4977   Anisotropy =    12.3665

     26  H    Isotropic =    32.2590   Anisotropy =     9.6025

     27  H    Isotropic =    32.5448   Anisotropy =    12.5536

     28  H    Isotropic =    32.3656   Anisotropy =    14.7893

     29  H    Isotropic =    32.2068   Anisotropy =     9.2159

     30  H    Isotropic =    32.7071   Anisotropy =    10.4079

     31  H    Isotropic =    32.5751   Anisotropy =    15.0252

 The electronic state is 1-A.
 Alpha  occ. eigenvalues --  -20.23661 -11.08553 -11.05032 -11.04606 -11.04340
 Alpha  occ. eigenvalues --  -11.04073 -11.04013 -11.03679 -11.03449 -11.02750
 Alpha  occ. eigenvalues --  -11.02432  -1.27955  -1.08210  -1.03814  -0.97285
 Alpha  occ. eigenvalues --   -0.95305  -0.88565  -0.87991  -0.79814  -0.78665
 Alpha  occ. eigenvalues --   -0.73460  -0.69969  -0.61706  -0.60570  -0.59801
 Alpha  occ. eigenvalues --   -0.57544  -0.56402  -0.54291  -0.53080  -0.52680
 Alpha  occ. eigenvalues --   -0.51648  -0.50661  -0.49198  -0.48623  -0.47057
 Alpha  occ. eigenvalues --   -0.45796  -0.44125  -0.43128  -0.42425  -0.41630
 Alpha  occ. eigenvalues --   -0.39685  -0.39248  -0.36319  -0.32478
 Alpha virt. eigenvalues --    0.53608   0.56065   0.57256   0.57892   0.60400
 Alpha virt. eigenvalues --    0.61466   0.61999   0.65430   0.66119   0.67593
 Alpha virt. eigenvalues --    0.68592   0.69157   0.70382   0.72032   0.72561

 Mulliken atomic charges:
              1
     1  C   -0.171384
     2  C   -0.026920
     3  C    0.074600
     4  C   -0.105557
     5  C   -0.041279
     6  C   -0.101189
     7  C   -0.113171
     8  O   -0.315962
     9  C   -0.017533
    10  C   -0.173820
    11  C   -0.178930
    12  H    0.053831
    13  H    0.055237
    14  H    0.054389
    15  H    0.041519
    16  H    0.060708
    17  H    0.053145
    18  H    0.043007
    19  H    0.045909
    20  H    0.048292
    21  H    0.050550
    22  H    0.049756
    23  H    0.058133
    24  H    0.178780
    25  H    0.045857
    26  H    0.057842
    27  H    0.050379
    28  H    0.053814
    29  H    0.067697
    30  H    0.050025
    31  H    0.052275
 Sum of Mulliken atomic charges =   0.00000

 Dipole moment (field-independent basis, Debye):
    X=             -0.7474    Y=              1.1841    Z=             -0.5381  Tot=              1.5001
 Quadrupole moment (field-independent basis, Debye-Ang):
   XX=            -68.4130   YY=            -70.0453   ZZ=            -66.9639
   XY=              1.0731   XZ=             -1.3344   YZ=              2.2134

 Summary of Natural Population Analysis:

                                       Natural Population
                Natural  -----------------------------------------------
    Atom  No    Charge         Core      Valence    Rydberg      Total
 -----------------------------------------------------------------------
      C    1   -0.12656      1.99997     4.12659    0.00000     6.12656
      C    2    0.01193      1.99997     3.98811    0.00000     5.98807
      C    3    0.14088      1.99989     3.85924    0.00000     5.85912
      C    4   -0.06750      1.99996     4.06754    0.00000     6.06750
      C    5   -0.02102      1.99995     4.02107    0.00000     6.02102
      C    6   -0.06387      1.99996     4.06391    0.00000     6.06387
      C    7   -0.08950      1.99996     4.08954    0.00000     6.08950
      O    8   -0.33661      1.99999     6.33662    0.00000     8.33661
      C    9    0.02373      1.99996     3.97631    0.00000     5.97627
      C   10   -0.12981      1.99997     4.12984    0.00000     6.12981
      C   11   -0.13582      1.99997     4.13585    0.00000     6.13582
      H   12    0.03646      0.00000     0.96354    0.00000     0.96354
      H   13    0.03778      0.00000     0.96222    0.00000     0.96222
      H   14    0.03702      0.00000     0.96298    0.00000     0.96298
      H   15    0.01792      0.00000     0.98208    0.00000     0.98208
      H   16    0.02514      0.00000     0.97486    0.00000     0.97486
      H   17    0.03238      0.00000     0.96762    0.00000     0.96762
      H   18    0.02258      0.00000     0.97742    0.00000     0.97742
      H   19    0.02154      0.00000     0.97846    0.00000     0.97846
      H   20    0.02757      0.00000     0.97243    0.00000     0.97243
      H   21    0.02980      0.00000     0.97020    0.00000     0.97020
      H   22    0.02963      0.00000     0.97037    0.00000     0.97037
      H   23    0.03704      0.00000     0.96296    0.00000     0.96296
      H   24    0.19092      0.00000     0.80908    0.00000     0.80908
      H   25    0.02069      0.00000     0.97931    0.00000     0.97931
      H   26    0.03994      0.00000     0.96006    0.00000     0.96006
      H   27    0.03327      0.00000     0.96673    0.00000     0.96673
      H   28    0.03667      0.00000     0.96333    0.00000     0.96333
      H   29    0.04890      0.00000     0.95110    0.00000     0.95110
      H   30    0.03320      0.00000     0.96680    0.00000     0.96680
      H   31    0.03570      0.00000     0.96430    0.00000     0.96430
 =======================================================================
   * Total *    0.00000     21.99956    66.00044    0.00000    88.00000

 Normal termination of Gaussian 09 at Tue Aug  3 16:37:34 2021.
