 Gaussian 09, Revision C.01,
 Gaussian 09:  EM64L-G09RevC.01 23-Sep-2011

 ------------------------
 # rhf/STO-3G nmr pop=nbo
 ------------------------

 99/9=1/99;
 -------
 comment
 -------
 Charge =  0 Multiplicity = 1

                         Standard orientation:
 ---------------------------------------------------------------------
 Center     Atomic      Atomic             Coordinates (Angstroms)
 Number     Number       Type             X           Y           Z
 ---------------------------------------------------------------------
      1          6           0        3.184918    0.322873   -0.381965
      2          6           0        2.110463   -0.100522    0.624337
      3          6           0        0.088873    1.089190   -0.397126
      4          6           0        0.514371   -1.348909   -0.939384
      5          6           0       -0.562472   -0.246113   -0.821307
      6          6           0        1.478047   -1.442977    0.241660
      7          6           0        1.039913    0.981353    0.798103
      8          8           0       -0.871939    2.111167   -0.169205
      9          6           0       -1.841747   -0.736618   -0.067358
     10          6           0       -3.102247    0.011539   -0.529850
     11          6           0       -1.788671   -0.724943    1.458915
     12          1           0        3.652709    1.263628   -0.072529
     13          1           0        3.973993   -0.434432   -0.442154
     14          1           0        2.782256    0.464479   -1.388993
     15          1           0        2.617585   -0.230120    1.589506
     16          1           0        0.677946    1.441980   -1.252697
     17          1           0        1.103169   -1.151352   -1.845041
     18          1           0        0.046847   -2.326722   -1.105629
     19          1           0       -0.909601   -0.084232   -1.853634
     20          1           0        2.264441   -2.170600    0.004994
     21          1           0        0.953487   -1.852741    1.109872
     22          1           0        1.511569    1.957000    0.974264
     23          1           0        0.472901    0.781905    1.713713
     24          1           0       -1.212299    2.018388    0.735395
     25          1           0       -2.003373   -1.782115   -0.364941
     26          1           0       -3.116585    1.051558   -0.194643
     27          1           0       -3.189131    0.000702   -1.621296
     28          1           0       -4.000081   -0.471664   -0.127824
     29          1           0       -1.748168    0.289153    1.863891
     30          1           0       -0.940064   -1.289960    1.845313
     31          1           0       -2.690778   -1.193431    1.869929
 ---------------------------------------------------------------------

 SCF Done:  E(RHF) =  -459.607653391     A.U. after   10 cycles

      1  C    Isotropic =   222.5317   Anisotropy =    25.9443

      2  C    Isotropic =   216.4834   Anisotropy =     6.1750

      3  C    Isotropic =   190.3158   Anisotropy =    42.3587

      4  C    Isotropic =   216.2110   Anisotropy =    21.1276

      5  C    Isotropic =   211.8665   Anisotropy =    15.6068

      6  C    Isotropic =   219.0017   Anisotropy =    11.3224

      7  C    Isotropic =   216.3301   Anisotropy =    18.5234

      8  O    Isotropic =   358.7084   Anisotropy =    81.6542

      9  C    Isotropic =   210.6689   Anisotropy =    21.8864

     10  C    Isotropic =   219.0846   Anisotropy =    29.9080

     11  C    Isotropic =   222.6745   Anisotropy =    18.4013

     12  H    Isotropic =    32.5502   Anisotropy =    14.2018

     13  H    Isotropic =    32.5917   Anisotropy =    14.5790

     14  H    Isotropic =    32.5073   Anisotropy =     8.7174

     15  H    Isotropic =    32.4461   Anisotropy =    14.6323

     16  H    Isotropic =    31.3905   Anisotropy =    10.2399

     17  H    Isotropic =    32.3874   Anisotropy =    12.7494

     18  H    Isotropic =    32.5585   Anisotropy =    13.3063

     19  H    Isotropic =    32.1148   Anisotropy =    12.4955

     20  H    Isotropic =    32.6371   Anisotropy =    14.8213

     21  H    Isotropic =    32.6845   Anisotropy =    11.4802

     22  H    Isotropic =    32.3496   Anisotropy =    13.5644

     23  H    Isotropic =    33.0985   Anisotropy =     9.8779

     24  H    Isotropic =    35.3173   Anisotropy =    12.8510

     25  H    Isotropic =    32.5334   Anisotropy =    11.7325

     26  H    Isotropic =    32.3167   Anisotropy =     9.0850

     27  H    Isotropic =    32.3236   Anisotropy =    13.0560

     28  H    Isotropic =    32.5027   Anisotropy =    14.6337

     29  H    Isotropic =    33.3865   Anisotropy =     8.5312

     30  H    Isotropic =    32.7030   Anisotropy =     9.4396

     31  H    Isotropic =    32.5492   Anisotropy =    14.7795

 The electronic state is 1-A.
 Alpha  occ. eigenvalues --  -20.23931 -11.08658 -11.05015 -11.04848 -11.04001
 Alpha  occ. eigenvalues --  -11.03854 -11.03764 -11.03702 -11.03652 -11.03254
 Alpha  occ. eigenvalues --  -11.02613  -1.28030  -1.08271  -1.03644  -0.97102
 Alpha  occ. eigenvalues --   -0.94815  -0.89734  -0.88293  -0.79674  -0.79383
 Alpha  occ. eigenvalues --   -0.73435  -0.68719  -0.63038  -0.59891  -0.59441
 Alpha  occ. eigenvalues --   -0.57578  -0.56012  -0.55322  -0.52979  -0.52657
 Alpha  occ. eigenvalues --   -0.51750  -0.50667  -0.50094  -0.48607  -0.46744
 Alpha  occ. eigenvalues --   -0.46251  -0.44067  -0.43052  -0.42529  -0.41562
 Alpha  occ. eigenvalues --   -0.40192  -0.38234  -0.35989  -0.32661
 Alpha virt. eigenvalues --    0.53386   0.54734   0.56670   0.58554   0.60192
 Alpha virt. eigenvalues --    0.60705   0.62217   0.63902   0.64466   0.66265
 Alpha virt. eigenvalues --    0.67776   0.69650   0.70435   0.70929   0.71484

 Mulliken atomic charges:
              1
     1  C   -0.174621
     2  C   -0.023173
     3  C    0.075594
     4  C   -0.102376
     5  C   -0.042823
     6  C   -0.103021
     7  C   -0.117481
     8  O   -0.312331
     9  C   -0.022189
    10  C   -0.173375
    11  C   -0.177270
    12  H    0.054676
    13  H    0.054224
    14  H    0.053724
    15  H    0.049888
    16  H    0.057769
    17  H    0.047673
    18  H    0.051560
    19  H    0.051685
    20  H    0.051285
    21  H    0.047744
    22  H    0.055834
    23  H    0.046862
    24  H    0.178845
    25  H    0.049221
    26  H    0.059298
    27  H    0.054414
    28  H    0.050321
    29  H    0.044682
    30  H    0.056546
    31  H    0.056816
 Sum of Mulliken atomic charges =   0.00000

 Dipole moment (field-independent basis, Debye):
    X=              0.4385    Y=             -1.1421    Z=              0.9346  Tot=              1.5395
 Quadrupole moment (field-independent basis, Debye-Ang):
   XX=            -67.7596   YY=            -71.2154   ZZ=            -66.6730
   XY=              1.5255   XZ=             -1.5360   YZ=              2.4409

 Summary of Natural Population Analysis:

                                       Natural Population
                Natural  -----------------------------------------------
    Atom  No    Charge         Core      Valence    Rydberg      Total
 -----------------------------------------------------------------------
      C    1   -0.12989      1.99997     4.12992    0.00000     6.12989
      C    2    0.01628      1.99997     3.98375    0.00000     5.98372
      C    3    0.14147      1.99989     3.85864    0.00000     5.85853
      C    4   -0.06424      1.99996     4.06428    0.00000     6.06424
      C    5   -0.02233      1.99995     4.02238    0.00000     6.02233
      C    6   -0.06629      1.99996     4.06633    0.00000     6.06629
      C    7   -0.09382      1.99996     4.09386    0.00000     6.09382
      O    8   -0.33259      1.99999     6.33260    0.00000     8.33259
      C    9    0.01961      1.99996     3.98044    0.00000     5.98039
      C   10   -0.12927      1.99997     4.12930    0.00000     6.12927
      C   11   -0.13320      1.99997     4.13324    0.00000     6.13320
      H   12    0.03737      0.00000     0.96263    0.00000     0.96263
      H   13    0.03701      0.00000     0.96299    0.00000     0.96299
      H   14    0.03626      0.00000     0.96374    0.00000     0.96374
      H   15    0.02561      0.00000     0.97439    0.00000     0.97439
      H   16    0.02247      0.00000     0.97753    0.00000     0.97753
      H   17    0.02660      0.00000     0.97340    0.00000     0.97340
      H   18    0.03053      0.00000     0.96947    0.00000     0.96947
      H   19    0.02609      0.00000     0.97391    0.00000     0.97391
      H   20    0.03096      0.00000     0.96904    0.00000     0.96904
      H   21    0.02676      0.00000     0.97324    0.00000     0.97324
      H   22    0.03527      0.00000     0.96473    0.00000     0.96473
      H   23    0.02660      0.00000     0.97340    0.00000     0.97340
      H   24    0.19101      0.00000     0.80899    0.00000     0.80899
      H   25    0.02388      0.00000     0.97612    0.00000     0.97612
      H   26    0.04073      0.00000     0.95927    0.00000     0.95927
      H   27    0.03691      0.00000     0.96309    0.00000     0.96309
      H   28    0.03314      0.00000     0.96686    0.00000     0.96686
      H   29    0.02840      0.00000     0.97160    0.00000     0.97160
      H   30    0.03866      0.00000     0.96134    0.00000     0.96134
      H   31    0.04000      0.00000     0.96000    0.00000     0.96000
 =======================================================================
   * Total *    0.00000     21.99953    66.00047    0.00000    88.00000

 Normal termination of Gaussian 09 at Tue Aug  3 16:38:09 2021.
