 Gaussian 09, Revision C.01,
 Gaussian 09:  EM64L-G09RevC.01 23-Sep-2011

 ------------------------
 # rhf/STO-3G nmr pop=nbo
 ------------------------

 99/9=1/99;
 -------
 comment
 -------
 Charge =  0 Multiplicity = 1

                         Standard orientation:
 ---------------------------------------------------------------------
 Center     Atomic      Atomic             Coordinates (Angstroms)
 Number     Number       Type             X           Y           Z
 ---------------------------------------------------------------------
      1          6           0       -2.636150   -0.274452    1.484398
      2          6           0       -2.395930   -0.202135   -0.026164
      3          6           0       -0.215071    1.153799    0.032104
      4          6           0       -0.167399   -1.190991   -0.894668
      5          6           0        0.500648   -0.225205    0.098294
      6          6           0       -1.643887   -1.436609   -0.551160
      7          6           0       -1.679634    1.085790   -0.425250
      8          8           0        0.456610    2.056491   -0.848116
      9          6           0        2.048398   -0.136353   -0.064129
     10          6           0        2.729939   -1.509427    0.007191
     11          6           0        2.671572    0.763942    1.013015
     12          1           0       -3.223102   -1.164031    1.737450
     13          1           0       -1.704408   -0.316852    2.054618
     14          1           0       -3.199070    0.600522    1.826822
     15          1           0       -3.389855   -0.193871   -0.493341
     16          1           0       -0.175650    1.608104    1.029191
     17          1           0        0.328396   -2.166174   -0.908996
     18          1           0       -0.086629   -0.786595   -1.911686
     19          1           0        0.314205   -0.641418    1.098290
     20          1           0       -1.714616   -2.256990    0.174099
     21          1           0       -2.141916   -1.801138   -1.458853
     22          1           0       -2.217504    1.961793   -0.040331
     23          1           0       -1.729572    1.186070   -1.518622
     24          1           0        0.470178    1.654742   -1.733567
     25          1           0        2.285820    0.291129   -1.046281
     26          1           0        2.434778   -2.053009    0.910900
     27          1           0        2.484183   -2.124318   -0.863437
     28          1           0        3.820579   -1.404471    0.017733
     29          1           0        2.450726    0.386406    2.017367
     30          1           0        2.304985    1.792143    0.950313
     31          1           0        3.760677    0.805880    0.901476
 ---------------------------------------------------------------------

 SCF Done:  E(RHF) =  -459.609196089     A.U. after   10 cycles

      1  C    Isotropic =   220.5669   Anisotropy =    27.1263

      2  C    Isotropic =   217.8069   Anisotropy =     4.6837

      3  C    Isotropic =   189.9392   Anisotropy =    38.4092

      4  C    Isotropic =   219.9542   Anisotropy =    15.2058

      5  C    Isotropic =   210.0886   Anisotropy =    20.1199

      6  C    Isotropic =   216.8895   Anisotropy =    16.3644

      7  C    Isotropic =   214.8961   Anisotropy =    20.0306

      8  O    Isotropic =   352.3676   Anisotropy =    72.5344

      9  C    Isotropic =   214.3673   Anisotropy =    14.7398

     10  C    Isotropic =   221.4241   Anisotropy =    25.1686

     11  C    Isotropic =   221.0838   Anisotropy =    26.4069

     12  H    Isotropic =    32.5151   Anisotropy =    14.1616

     13  H    Isotropic =    32.7096   Anisotropy =     7.8474

     14  H    Isotropic =    32.5419   Anisotropy =    14.2487

     15  H    Isotropic =    32.3944   Anisotropy =    15.3995

     16  H    Isotropic =    31.2460   Anisotropy =     9.3575

     17  H    Isotropic =    32.5209   Anisotropy =    12.5522

     18  H    Isotropic =    33.2369   Anisotropy =    10.9039

     19  H    Isotropic =    32.8565   Anisotropy =     7.9983

     20  H    Isotropic =    32.6256   Anisotropy =    12.2973

     21  H    Isotropic =    32.2150   Anisotropy =    14.9161

     22  H    Isotropic =    31.9508   Anisotropy =    14.0881

     23  H    Isotropic =    32.8278   Anisotropy =    11.6027

     24  H    Isotropic =    35.1938   Anisotropy =    13.7259

     25  H    Isotropic =    32.6279   Anisotropy =     9.6857

     26  H    Isotropic =    32.7002   Anisotropy =    10.9539

     27  H    Isotropic =    32.4849   Anisotropy =    11.3416

     28  H    Isotropic =    32.4991   Anisotropy =    14.2631

     29  H    Isotropic =    32.6366   Anisotropy =    11.3463

     30  H    Isotropic =    31.8650   Anisotropy =    10.0802

     31  H    Isotropic =    32.4671   Anisotropy =    14.6224

 The electronic state is 1-A.
 Alpha  occ. eigenvalues --  -20.23819 -11.08483 -11.04822 -11.04750 -11.04247
 Alpha  occ. eigenvalues --  -11.03855 -11.03775 -11.03716 -11.03291 -11.03067
 Alpha  occ. eigenvalues --  -11.02447  -1.27852  -1.08208  -1.03685  -0.96868
 Alpha  occ. eigenvalues --   -0.94458  -0.88880  -0.88420  -0.79960  -0.79017
 Alpha  occ. eigenvalues --   -0.72864  -0.68561  -0.64090  -0.60941  -0.58014
 Alpha  occ. eigenvalues --   -0.57618  -0.55683  -0.54652  -0.53081  -0.52639
 Alpha  occ. eigenvalues --   -0.51438  -0.50414  -0.50040  -0.48272  -0.46174
 Alpha  occ. eigenvalues --   -0.45460  -0.44450  -0.42868  -0.42401  -0.41757
 Alpha  occ. eigenvalues --   -0.39595  -0.39261  -0.35783  -0.32884
 Alpha virt. eigenvalues --    0.52549   0.55126   0.57619   0.59171   0.60732
 Alpha virt. eigenvalues --    0.61628   0.61885   0.63540   0.64184   0.65772
 Alpha virt. eigenvalues --    0.67771   0.68131   0.69945   0.71217   0.71973

 Mulliken atomic charges:
              1
     1  C   -0.173521
     2  C   -0.026326
     3  C    0.073330
     4  C   -0.104311
     5  C   -0.043656
     6  C   -0.102325
     7  C   -0.111349
     8  O   -0.310710
     9  C   -0.017485
    10  C   -0.173325
    11  C   -0.174611
    12  H    0.054094
    13  H    0.052515
    14  H    0.054108
    15  H    0.049993
    16  H    0.058990
    17  H    0.055460
    18  H    0.038968
    19  H    0.045839
    20  H    0.050221
    21  H    0.049487
    22  H    0.057013
    23  H    0.046495
    24  H    0.175054
    25  H    0.047621
    26  H    0.052291
    27  H    0.053045
    28  H    0.055639
    29  H    0.049280
    30  H    0.065444
    31  H    0.052732
 Sum of Mulliken atomic charges =   0.00000

 Dipole moment (field-independent basis, Debye):
    X=             -0.6005    Y=             -1.3118    Z=             -0.3772  Tot=              1.4912
 Quadrupole moment (field-independent basis, Debye-Ang):
   XX=            -67.8166   YY=            -72.5845   ZZ=            -65.2104
   XY=             -1.4765   XZ=             -0.0686   YZ=              0.2299

 Summary of Natural Population Analysis:

                                       Natural Population
                Natural  -----------------------------------------------
    Atom  No    Charge         Core      Valence    Rydberg      Total
 -----------------------------------------------------------------------
      C    1   -0.12821      1.99997     4.12824    0.00000     6.12821
      C    2    0.01138      1.99997     3.98865    0.00000     5.98862
      C    3    0.14103      1.99989     3.85908    0.00000     5.85897
      C    4   -0.06667      1.99996     4.06672    0.00000     6.06667
      C    5   -0.02270      1.99995     4.02275    0.00000     6.02270
      C    6   -0.06426      1.99996     4.06430    0.00000     6.06426
      C    7   -0.08837      1.99996     4.08840    0.00000     6.08837
      O    8   -0.33159      1.99999     6.33160    0.00000     8.33159
      C    9    0.02462      1.99996     3.97542    0.00000     5.97538
      C   10   -0.12907      1.99997     4.12910    0.00000     6.12907
      C   11   -0.13060      1.99997     4.13064    0.00000     6.13060
      H   12    0.03684      0.00000     0.96316    0.00000     0.96316
      H   13    0.03491      0.00000     0.96509    0.00000     0.96509
      H   14    0.03675      0.00000     0.96325    0.00000     0.96325
      H   15    0.02600      0.00000     0.97400    0.00000     0.97400
      H   16    0.02318      0.00000     0.97682    0.00000     0.97682
      H   17    0.03400      0.00000     0.96600    0.00000     0.96600
      H   18    0.01872      0.00000     0.98128    0.00000     0.98128
      H   19    0.02081      0.00000     0.97919    0.00000     0.97919
      H   20    0.02917      0.00000     0.97083    0.00000     0.97083
      H   21    0.02871      0.00000     0.97129    0.00000     0.97129
      H   22    0.03617      0.00000     0.96383    0.00000     0.96383
      H   23    0.02691      0.00000     0.97309    0.00000     0.97309
      H   24    0.18735      0.00000     0.81265    0.00000     0.81265
      H   25    0.02194      0.00000     0.97806    0.00000     0.97806
      H   26    0.03495      0.00000     0.96505    0.00000     0.96505
      H   27    0.03553      0.00000     0.96447    0.00000     0.96447
      H   28    0.03832      0.00000     0.96168    0.00000     0.96168
      H   29    0.03217      0.00000     0.96783    0.00000     0.96783
      H   30    0.04643      0.00000     0.95357    0.00000     0.95357
      H   31    0.03558      0.00000     0.96442    0.00000     0.96442
 =======================================================================
   * Total *    0.00000     21.99954    66.00046    0.00000    88.00000

 Normal termination of Gaussian 09 at Sun May 24 02:10:40 2020.
