 Gaussian 09, Revision C.01,
 Gaussian 09:  EM64L-G09RevC.01 23-Sep-2011

 ------------------------
 # rhf/STO-3G nmr pop=nbo
 ------------------------

 99/9=1/99;
 -------
 comment
 -------
 Charge =  0 Multiplicity = 1

                         Standard orientation:
 ---------------------------------------------------------------------
 Center     Atomic      Atomic             Coordinates (Angstroms)
 Number     Number       Type             X           Y           Z
 ---------------------------------------------------------------------
      1          6           0       -3.696351    0.204016   -0.286184
      2          6           0       -2.247365    0.088365    0.185891
      3          6           0       -0.042841   -1.143111   -0.185574
      4          6           0       -0.046670    1.325915    0.422832
      5          6           0        0.715535    0.200888   -0.311333
      6          6           0       -1.512089    1.416789    0.000684
      7          6           0       -1.521343   -1.030976   -0.569334
      8          8           0        0.067465   -1.674390    1.133637
      9          6           0        2.196431    0.105993    0.175312
     10          6           0        2.959100    1.422679   -0.025246
     11          6           0        2.968445   -1.012809   -0.536437
     12          1           0       -4.224380    0.985565    0.270258
     13          1           0       -3.750838    0.451679   -1.351745
     14          1           0       -4.231651   -0.738427   -0.129731
     15          1           0       -2.265927   -0.155833    1.255626
     16          1           0        0.409117   -1.883055   -0.854671
     17          1           0        0.414754    2.296917    0.213462
     18          1           0        0.012191    1.176010    1.507780
     19          1           0        0.727852    0.464453   -1.378914
     20          1           0       -1.563609    1.729767   -1.050224
     21          1           0       -2.006008    2.201026    0.587080
     22          1           0       -1.594693   -0.851219   -1.649672
     23          1           0       -2.024286   -1.983999   -0.362929
     24          1           0       -0.289604   -1.024453    1.760482
     25          1           0        2.204987   -0.116029    1.250322
     26          1           0        2.901181    1.759459   -1.065698
     27          1           0        2.566886    2.216065    0.617551
     28          1           0        4.017422    1.304876    0.232812
     29          1           0        2.920944   -0.895786   -1.624309
     30          1           0        2.574990   -2.000255   -0.277984
     31          1           0        4.023839   -1.008135   -0.242253
 ---------------------------------------------------------------------

 SCF Done:  E(RHF) =  -459.621361028     A.U. after   10 cycles

      1  C    Isotropic =   221.0708   Anisotropy =    28.5932

      2  C    Isotropic =   217.5092   Anisotropy =     9.7777

      3  C    Isotropic =   190.8354   Anisotropy =    35.0150

      4  C    Isotropic =   218.9435   Anisotropy =    17.4795

      5  C    Isotropic =   209.1445   Anisotropy =    18.7771

      6  C    Isotropic =   216.2279   Anisotropy =    17.0695

      7  C    Isotropic =   214.7402   Anisotropy =    17.5937

      8  O    Isotropic =   366.4138   Anisotropy =    62.9578

      9  C    Isotropic =   213.3001   Anisotropy =    16.8983

     10  C    Isotropic =   221.2459   Anisotropy =    25.5673

     11  C    Isotropic =   221.4818   Anisotropy =    24.9900

     12  H    Isotropic =    32.4863   Anisotropy =    13.7498

     13  H    Isotropic =    32.7160   Anisotropy =    11.7422

     14  H    Isotropic =    32.4447   Anisotropy =    13.9082

     15  H    Isotropic =    33.1508   Anisotropy =    10.3395

     16  H    Isotropic =    31.3050   Anisotropy =    10.7368

     17  H    Isotropic =    32.3921   Anisotropy =    12.6499

     18  H    Isotropic =    33.2246   Anisotropy =     9.8740

     19  H    Isotropic =    32.9503   Anisotropy =     9.1399

     20  H    Isotropic =    32.8867   Anisotropy =    11.1050

     21  H    Isotropic =    32.5256   Anisotropy =    13.8857

     22  H    Isotropic =    32.7527   Anisotropy =    11.3605

     23  H    Isotropic =    32.0543   Anisotropy =    13.6477

     24  H    Isotropic =    34.8691   Anisotropy =    12.3751

     25  H    Isotropic =    32.4067   Anisotropy =     9.2856

     26  H    Isotropic =    32.6767   Anisotropy =    11.2072

     27  H    Isotropic =    32.4192   Anisotropy =    10.9892

     28  H    Isotropic =    32.4880   Anisotropy =    14.3222

     29  H    Isotropic =    32.6459   Anisotropy =    11.3840

     30  H    Isotropic =    31.9628   Anisotropy =    10.4964

     31  H    Isotropic =    32.4673   Anisotropy =    14.4824

 The electronic state is 1-A.
 Alpha  occ. eigenvalues --  -20.23623 -11.08434 -11.04969 -11.04590 -11.04422
 Alpha  occ. eigenvalues --  -11.04042 -11.04000 -11.03676 -11.03413 -11.02970
 Alpha  occ. eigenvalues --  -11.02588  -1.27835  -1.08192  -1.03901  -0.97218
 Alpha  occ. eigenvalues --   -0.95275  -0.88641  -0.88039  -0.79609  -0.78520
 Alpha  occ. eigenvalues --   -0.73164  -0.70693  -0.63105  -0.60045  -0.58404
 Alpha  occ. eigenvalues --   -0.57041  -0.56256  -0.55527  -0.53486  -0.51980
 Alpha  occ. eigenvalues --   -0.51208  -0.50876  -0.49975  -0.49039  -0.46911
 Alpha  occ. eigenvalues --   -0.45286  -0.44078  -0.42803  -0.42587  -0.41665
 Alpha  occ. eigenvalues --   -0.39952  -0.39223  -0.36187  -0.32806
 Alpha virt. eigenvalues --    0.53228   0.55914   0.57709   0.58144   0.60006
 Alpha virt. eigenvalues --    0.61722   0.62090   0.64056   0.67265   0.67872
 Alpha virt. eigenvalues --    0.68593   0.69542   0.70109   0.71983   0.72873

 Mulliken atomic charges:
              1
     1  C   -0.171352
     2  C   -0.026957
     3  C    0.074284
     4  C   -0.106456
     5  C   -0.040868
     6  C   -0.101167
     7  C   -0.113277
     8  O   -0.315313
     9  C   -0.018666
    10  C   -0.173721
    11  C   -0.174343
    12  H    0.054174
    13  H    0.053704
    14  H    0.055101
    15  H    0.041773
    16  H    0.060481
    17  H    0.055744
    18  H    0.041074
    19  H    0.045404
    20  H    0.048478
    21  H    0.050688
    22  H    0.050084
    23  H    0.058448
    24  H    0.177065
    25  H    0.051355
    26  H    0.051627
    27  H    0.053206
    28  H    0.054963
    29  H    0.049765
    30  H    0.061052
    31  H    0.053646
 Sum of Mulliken atomic charges =   0.00000

 Dipole moment (field-independent basis, Debye):
    X=             -0.5624    Y=              1.3397    Z=             -0.3514  Tot=              1.4949
 Quadrupole moment (field-independent basis, Debye-Ang):
   XX=            -68.1447   YY=            -71.5897   ZZ=            -66.1308
   XY=              0.7215   XZ=             -0.8705   YZ=              2.1506

 Summary of Natural Population Analysis:

                                       Natural Population
                Natural  -----------------------------------------------
    Atom  No    Charge         Core      Valence    Rydberg      Total
 -----------------------------------------------------------------------
      C    1   -0.12630      1.99997     4.12633    0.00000     6.12630
      C    2    0.01128      1.99997     3.98875    0.00000     5.98872
      C    3    0.14064      1.99989     3.85948    0.00000     5.85936
      C    4   -0.06845      1.99996     4.06850    0.00000     6.06845
      C    5   -0.01907      1.99995     4.01912    0.00000     6.01907
      C    6   -0.06425      1.99997     4.06428    0.00000     6.06425
      C    7   -0.09039      1.99996     4.09043    0.00000     6.09039
      O    8   -0.33600      1.99999     6.33601    0.00000     8.33600
      C    9    0.02266      1.99996     3.97738    0.00000     5.97734
      C   10   -0.12950      1.99997     4.12953    0.00000     6.12950
      C   11   -0.13044      1.99997     4.13047    0.00000     6.13044
      H   12    0.03682      0.00000     0.96318    0.00000     0.96318
      H   13    0.03635      0.00000     0.96365    0.00000     0.96365
      H   14    0.03766      0.00000     0.96234    0.00000     0.96234
      H   15    0.01842      0.00000     0.98158    0.00000     0.98158
      H   16    0.02484      0.00000     0.97516    0.00000     0.97516
      H   17    0.03455      0.00000     0.96545    0.00000     0.96545
      H   18    0.02084      0.00000     0.97916    0.00000     0.97916
      H   19    0.02045      0.00000     0.97955    0.00000     0.97955
      H   20    0.02793      0.00000     0.97207    0.00000     0.97207
      H   21    0.03010      0.00000     0.96990    0.00000     0.96990
      H   22    0.03022      0.00000     0.96978    0.00000     0.96978
      H   23    0.03760      0.00000     0.96240    0.00000     0.96240
      H   24    0.18917      0.00000     0.81083    0.00000     0.81083
      H   25    0.02529      0.00000     0.97471    0.00000     0.97471
      H   26    0.03433      0.00000     0.96567    0.00000     0.96567
      H   27    0.03565      0.00000     0.96435    0.00000     0.96435
      H   28    0.03767      0.00000     0.96233    0.00000     0.96233
      H   29    0.03268      0.00000     0.96732    0.00000     0.96732
      H   30    0.04274      0.00000     0.95726    0.00000     0.95726
      H   31    0.03652      0.00000     0.96348    0.00000     0.96348
 =======================================================================
   * Total *    0.00000     21.99955    66.00045    0.00000    88.00000

 Normal termination of Gaussian 09 at Tue Aug  3 16:37:42 2021.
