 Gaussian 09, Revision C.01,
 Gaussian 09:  EM64L-G09RevC.01 23-Sep-2011

 ------------------------
 # rhf/STO-3G nmr pop=nbo
 ------------------------

 99/9=1/99;
 -------
 comment
 -------
 Charge =  0 Multiplicity = 1

                         Standard orientation:
 ---------------------------------------------------------------------
 Center     Atomic      Atomic             Coordinates (Angstroms)
 Number     Number       Type             X           Y           Z
 ---------------------------------------------------------------------
      1          6           0        3.508422   -0.215621   -0.273087
      2          6           0        2.160606    0.080199    0.387530
      3          6           0       -0.079414    1.153025   -0.180473
      4          6           0        0.317295   -1.350653   -0.638359
      5          6           0       -0.651869   -0.151670   -0.787498
      6          6           0        1.304940   -1.192645    0.513108
      7          6           0        1.437319    1.210104   -0.369904
      8          8           0       -0.377161    1.273708    1.204215
      9          6           0       -2.114067   -0.513358   -0.391652
     10          6           0       -3.078538    0.648194   -0.652351
     11          6           0       -2.304360   -1.036975    1.035048
     12          1           0        4.117461    0.692477   -0.335214
     13          1           0        4.071021   -0.955328    0.306279
     14          1           0        3.378189   -0.608329   -1.287102
     15          1           0        2.374558    0.429527    1.406685
     16          1           0       -0.538727    2.011570   -0.684221
     17          1           0        0.892936   -1.448758   -1.568926
     18          1           0       -0.230521   -2.294243   -0.536942
     19          1           0       -0.692063    0.030644   -1.873393
     20          1           0        1.941822   -2.082624    0.580875
     21          1           0        0.745006   -1.154583    1.455757
     22          1           0        1.664199    1.164026   -1.442793
     23          1           0        1.823778    2.170944   -0.007321
     24          1           0       -0.003154    2.115907    1.514382
     25          1           0       -2.421291   -1.329433   -1.061385
     26          1           0       -2.902466    1.484704    0.031217
     27          1           0       -2.977326    1.016629   -1.678547
     28          1           0       -4.116249    0.323793   -0.517972
     29          1           0       -2.140536   -0.264470    1.790137
     30          1           0       -1.640410   -1.877612    1.253390
     31          1           0       -3.330938   -1.398105    1.167202
 ---------------------------------------------------------------------

 SCF Done:  E(RHF) =  -459.609137346     A.U. after   10 cycles

      1  C    Isotropic =   220.8925   Anisotropy =    27.1777

      2  C    Isotropic =   216.7706   Anisotropy =     8.5566

      3  C    Isotropic =   189.1002   Anisotropy =    37.3398

      4  C    Isotropic =   218.1974   Anisotropy =    17.9526

      5  C    Isotropic =   210.6388   Anisotropy =    16.1614

      6  C    Isotropic =   217.6197   Anisotropy =    14.8656

      7  C    Isotropic =   214.4014   Anisotropy =    19.6091

      8  O    Isotropic =   358.4298   Anisotropy =    97.5632

      9  C    Isotropic =   211.6601   Anisotropy =    18.4526

     10  C    Isotropic =   221.4592   Anisotropy =    25.3398

     11  C    Isotropic =   223.4360   Anisotropy =    21.5278

     12  H    Isotropic =    32.5019   Anisotropy =    13.8130

     13  H    Isotropic =    32.4993   Anisotropy =    14.2350

     14  H    Isotropic =    32.5856   Anisotropy =    10.4448

     15  H    Isotropic =    32.2837   Anisotropy =    12.6504

     16  H    Isotropic =    31.8480   Anisotropy =    10.4510

     17  H    Isotropic =    32.4602   Anisotropy =    12.7674

     18  H    Isotropic =    32.4243   Anisotropy =    12.1497

     19  H    Isotropic =    32.3449   Anisotropy =    11.7028

     20  H    Isotropic =    32.6063   Anisotropy =    14.0449

     21  H    Isotropic =    32.0262   Anisotropy =    10.2604

     22  H    Isotropic =    32.7303   Anisotropy =    11.0023

     23  H    Isotropic =    32.6486   Anisotropy =    13.4383

     24  H    Isotropic =    35.2207   Anisotropy =    19.5416

     25  H    Isotropic =    32.4102   Anisotropy =    12.8284

     26  H    Isotropic =    32.2409   Anisotropy =     9.0429

     27  H    Isotropic =    32.5173   Anisotropy =    12.5803

     28  H    Isotropic =    32.3842   Anisotropy =    14.7775

     29  H    Isotropic =    32.0335   Anisotropy =     9.0805

     30  H    Isotropic =    32.4439   Anisotropy =     9.6541

     31  H    Isotropic =    32.5790   Anisotropy =    15.1320

 The electronic state is 1-A.
 Alpha  occ. eigenvalues --  -20.23794 -11.08654 -11.04316 -11.04183 -11.04143
 Alpha  occ. eigenvalues --  -11.03794 -11.03103 -11.03009 -11.02828 -11.02404
 Alpha  occ. eigenvalues --  -11.01673  -1.28092  -1.07470  -1.03088  -0.96284
 Alpha  occ. eigenvalues --   -0.95035  -0.88094  -0.87598  -0.79857  -0.78389
 Alpha  occ. eigenvalues --   -0.72213  -0.66554  -0.63369  -0.61872  -0.59817
 Alpha  occ. eigenvalues --   -0.56176  -0.55270  -0.54529  -0.53208  -0.51591
 Alpha  occ. eigenvalues --   -0.50029  -0.49691  -0.49065  -0.48696  -0.46740
 Alpha  occ. eigenvalues --   -0.45329  -0.43046  -0.42562  -0.41577  -0.40373
 Alpha  occ. eigenvalues --   -0.38818  -0.38564  -0.35995  -0.33070
 Alpha virt. eigenvalues --    0.52347   0.56482   0.58412   0.59461   0.60091
 Alpha virt. eigenvalues --    0.61415   0.62163   0.65351   0.65989   0.66392
 Alpha virt. eigenvalues --    0.68806   0.69816   0.70385   0.71887   0.72638

 Mulliken atomic charges:
              1
     1  C   -0.171133
     2  C   -0.022236
     3  C    0.077619
     4  C   -0.101149
     5  C   -0.031888
     6  C   -0.102546
     7  C   -0.113421
     8  O   -0.316224
     9  C   -0.013553
    10  C   -0.173909
    11  C   -0.177165
    12  H    0.051795
    13  H    0.053580
    14  H    0.051413
    15  H    0.048654
    16  H    0.040959
    17  H    0.043724
    18  H    0.052594
    19  H    0.046022
    20  H    0.049063
    21  H    0.058471
    22  H    0.051748
    23  H    0.045191
    24  H    0.176989
    25  H    0.044748
    26  H    0.058141
    27  H    0.048834
    28  H    0.052903
    29  H    0.069936
    30  H    0.052116
    31  H    0.048722
 Sum of Mulliken atomic charges =   0.00000

 Dipole moment (field-independent basis, Debye):
    X=              0.7228    Y=              0.8656    Z=             -0.6816  Tot=              1.3177
 Quadrupole moment (field-independent basis, Debye-Ang):
   XX=            -68.8139   YY=            -64.2201   ZZ=            -68.0345
   XY=              1.2338   XZ=              1.2291   YZ=              1.0459

 Summary of Natural Population Analysis:

                                       Natural Population
                Natural  -----------------------------------------------
    Atom  No    Charge         Core      Valence    Rydberg      Total
 -----------------------------------------------------------------------
      C    1   -0.12609      1.99998     4.12611    0.00000     6.12609
      C    2    0.01641      1.99997     3.98363    0.00000     5.98359
      C    3    0.14529      1.99989     3.85482    0.00000     5.85471
      C    4   -0.06392      1.99996     4.06397    0.00000     6.06392
      C    5   -0.00985      1.99995     4.00991    0.00000     6.00985
      C    6   -0.06632      1.99996     4.06636    0.00000     6.06632
      C    7   -0.08919      1.99996     4.08923    0.00000     6.08919
      O    8   -0.33726      1.99999     6.33726    0.00000     8.33726
      C    9    0.02770      1.99996     3.97234    0.00000     5.97230
      C   10   -0.12999      1.99997     4.13002    0.00000     6.12999
      C   11   -0.13424      1.99997     4.13428    0.00000     6.13424
      H   12    0.03453      0.00000     0.96547    0.00000     0.96547
      H   13    0.03619      0.00000     0.96381    0.00000     0.96381
      H   14    0.03411      0.00000     0.96589    0.00000     0.96589
      H   15    0.02402      0.00000     0.97598    0.00000     0.97598
      H   16    0.00518      0.00000     0.99482    0.00000     0.99482
      H   17    0.02298      0.00000     0.97702    0.00000     0.97702
      H   18    0.03165      0.00000     0.96835    0.00000     0.96835
      H   19    0.02108      0.00000     0.97892    0.00000     0.97892
      H   20    0.02871      0.00000     0.97129    0.00000     0.97129
      H   21    0.03669      0.00000     0.96331    0.00000     0.96331
      H   22    0.03161      0.00000     0.96839    0.00000     0.96839
      H   23    0.02541      0.00000     0.97459    0.00000     0.97459
      H   24    0.18979      0.00000     0.81021    0.00000     0.81021
      H   25    0.01953      0.00000     0.98047    0.00000     0.98047
      H   26    0.04017      0.00000     0.95983    0.00000     0.95983
      H   27    0.03187      0.00000     0.96813    0.00000     0.96813
      H   28    0.03586      0.00000     0.96414    0.00000     0.96414
      H   29    0.05075      0.00000     0.94925    0.00000     0.94925
      H   30    0.03505      0.00000     0.96495    0.00000     0.96495
      H   31    0.03228      0.00000     0.96772    0.00000     0.96772
 =======================================================================
   * Total *    0.00000     21.99954    66.00046    0.00000    88.00000

 Normal termination of Gaussian 09 at Sun May 24 02:11:06 2020.
