 Gaussian 09, Revision C.01,
 Gaussian 09:  EM64L-G09RevC.01 23-Sep-2011

 ------------------------
 # rhf/STO-3G nmr pop=nbo
 ------------------------

 99/9=1/99;
 -------
 comment
 -------
 Charge =  0 Multiplicity = 1

                         Standard orientation:
 ---------------------------------------------------------------------
 Center     Atomic      Atomic             Coordinates (Angstroms)
 Number     Number       Type             X           Y           Z
 ---------------------------------------------------------------------
      1          6           0       -3.697305    0.209706   -0.311325
      2          6           0       -2.256230    0.080506    0.179797
      3          6           0       -0.050855   -1.141522   -0.167569
      4          6           0       -0.055589    1.306980    0.477340
      5          6           0        0.705415    0.204045   -0.291284
      6          6           0       -1.518618    1.414490    0.048305
      7          6           0       -1.516082   -1.016279   -0.595850
      8          8           0       -0.023895   -1.620085    1.175907
      9          6           0        2.196444    0.118892    0.164837
     10          6           0        2.944647    1.441990   -0.051322
     11          6           0        2.962152   -0.991426   -0.566827
     12          1           0       -4.234402    0.974901    0.258972
     13          1           0       -3.734933    0.487861   -1.370061
     14          1           0       -4.234604   -0.736839   -0.190629
     15          1           0       -2.288799   -0.196530    1.241642
     16          1           0        0.412308   -1.905630   -0.800802
     17          1           0        0.407874    2.284102    0.306628
     18          1           0       -0.004746    1.114169    1.556227
     19          1           0        0.698965    0.482289   -1.355170
     20          1           0       -1.561907    1.764819   -0.991126
     21          1           0       -2.016626    2.177490    0.658723
     22          1           0       -1.560452   -0.806327   -1.672113
     23          1           0       -2.026160   -1.973420   -0.429149
     24          1           0        0.889500   -1.878795    1.382296
     25          1           0        2.231688   -0.101760    1.239255
     26          1           0        2.859702    1.780303   -1.089422
     27          1           0        2.562663    2.231502    0.602163
     28          1           0        4.009662    1.331466    0.181264
     29          1           0        2.890127   -0.871501   -1.653057
     30          1           0        2.583767   -1.983332   -0.303755
     31          1           0        4.023662   -0.978385   -0.295749
 ---------------------------------------------------------------------

 SCF Done:  E(RHF) =  -459.622456912     A.U. after   10 cycles

      1  C    Isotropic =   220.9732   Anisotropy =    28.5903

      2  C    Isotropic =   216.3848   Anisotropy =     8.4298

      3  C    Isotropic =   189.8242   Anisotropy =    35.2459

      4  C    Isotropic =   217.6856   Anisotropy =    16.3383

      5  C    Isotropic =   208.7583   Anisotropy =    17.1849

      6  C    Isotropic =   215.5734   Anisotropy =    17.2158

      7  C    Isotropic =   214.7639   Anisotropy =    18.3402

      8  O    Isotropic =   367.3896   Anisotropy =    78.0303

      9  C    Isotropic =   214.1757   Anisotropy =    15.6745

     10  C    Isotropic =   221.2326   Anisotropy =    25.8342

     11  C    Isotropic =   221.9545   Anisotropy =    24.2935

     12  H    Isotropic =    32.3913   Anisotropy =    13.9387

     13  H    Isotropic =    32.7039   Anisotropy =    11.6617

     14  H    Isotropic =    32.3709   Anisotropy =    13.7842

     15  H    Isotropic =    32.2359   Anisotropy =    10.5183

     16  H    Isotropic =    31.8965   Anisotropy =     9.8217

     17  H    Isotropic =    32.3597   Anisotropy =    12.5073

     18  H    Isotropic =    32.4280   Anisotropy =    10.0372

     19  H    Isotropic =    33.0200   Anisotropy =     8.7209

     20  H    Isotropic =    32.8354   Anisotropy =    11.0163

     21  H    Isotropic =    32.3238   Anisotropy =    14.1273

     22  H    Isotropic =    32.7672   Anisotropy =    11.0461

     23  H    Isotropic =    31.9053   Anisotropy =    13.3471

     24  H    Isotropic =    34.7621   Anisotropy =    17.0049

     25  H    Isotropic =    32.8596   Anisotropy =     9.4409

     26  H    Isotropic =    32.6646   Anisotropy =    11.1912

     27  H    Isotropic =    32.2973   Anisotropy =    11.3512

     28  H    Isotropic =    32.5587   Anisotropy =    14.1222

     29  H    Isotropic =    32.6970   Anisotropy =    11.2753

     30  H    Isotropic =    32.8066   Anisotropy =    10.7440

     31  H    Isotropic =    32.6144   Anisotropy =    14.1765

 The electronic state is 1-A.
 Alpha  occ. eigenvalues --  -20.23624 -11.08354 -11.05160 -11.04256 -11.03876
 Alpha  occ. eigenvalues --  -11.03676 -11.03534 -11.03320 -11.03175 -11.03103
 Alpha  occ. eigenvalues --  -11.02643  -1.27781  -1.07688  -1.03927  -0.96740
 Alpha  occ. eigenvalues --   -0.94927  -0.89325  -0.87566  -0.78733  -0.78073
 Alpha  occ. eigenvalues --   -0.73018  -0.70368  -0.62590  -0.61564  -0.57753
 Alpha  occ. eigenvalues --   -0.57014  -0.56857  -0.55151  -0.53034  -0.51677
 Alpha  occ. eigenvalues --   -0.50669  -0.50537  -0.50307  -0.48063  -0.46050
 Alpha  occ. eigenvalues --   -0.44827  -0.43811  -0.43504  -0.42293  -0.41793
 Alpha  occ. eigenvalues --   -0.39330  -0.38967  -0.36138  -0.32905
 Alpha virt. eigenvalues --    0.52989   0.55846   0.57206   0.59823   0.60495
 Alpha virt. eigenvalues --    0.61612   0.62400   0.64417   0.67631   0.67938
 Alpha virt. eigenvalues --    0.69612   0.70175   0.70837   0.71332   0.72894

 Mulliken atomic charges:
              1
     1  C   -0.172092
     2  C   -0.023242
     3  C    0.075264
     4  C   -0.101593
     5  C   -0.039483
     6  C   -0.098896
     7  C   -0.103135
     8  O   -0.316200
     9  C   -0.024298
    10  C   -0.172652
    11  C   -0.175529
    12  H    0.053244
    13  H    0.050780
    14  H    0.053596
    15  H    0.057348
    16  H    0.041836
    17  H    0.050476
    18  H    0.052846
    19  H    0.044026
    20  H    0.044040
    21  H    0.049480
    22  H    0.049570
    23  H    0.058265
    24  H    0.177800
    25  H    0.045174
    26  H    0.053172
    27  H    0.056657
    28  H    0.054435
    29  H    0.055115
    30  H    0.047882
    31  H    0.056114
 Sum of Mulliken atomic charges =   0.00000

 Dipole moment (field-independent basis, Debye):
    X=              1.0940    Y=              0.1921    Z=             -0.7686  Tot=              1.3507
 Quadrupole moment (field-independent basis, Debye-Ang):
   XX=            -67.1385   YY=            -68.0861   ZZ=            -68.0094
   XY=             -1.9492   XZ=              1.5541   YZ=              0.9478

 Summary of Natural Population Analysis:

                                       Natural Population
                Natural  -----------------------------------------------
    Atom  No    Charge         Core      Valence    Rydberg      Total
 -----------------------------------------------------------------------
      C    1   -0.12692      1.99997     4.12695    0.00000     6.12692
      C    2    0.01311      1.99997     3.98692    0.00000     5.98689
      C    3    0.14318      1.99988     3.85694    0.00000     5.85682
      C    4   -0.06433      1.99996     4.06437    0.00000     6.06433
      C    5   -0.01790      1.99995     4.01794    0.00000     6.01790
      C    6   -0.06155      1.99996     4.06158    0.00000     6.06155
      C    7   -0.07868      1.99996     4.07872    0.00000     6.07868
      O    8   -0.33728      1.99999     6.33728    0.00000     8.33728
      C    9    0.01772      1.99996     3.98232    0.00000     5.98228
      C   10   -0.12831      1.99997     4.12834    0.00000     6.12831
      C   11   -0.13108      1.99997     4.13111    0.00000     6.13108
      H   12    0.03607      0.00000     0.96393    0.00000     0.96393
      H   13    0.03367      0.00000     0.96633    0.00000     0.96633
      H   14    0.03634      0.00000     0.96366    0.00000     0.96366
      H   15    0.03242      0.00000     0.96758    0.00000     0.96758
      H   16    0.00602      0.00000     0.99398    0.00000     0.99398
      H   17    0.02926      0.00000     0.97074    0.00000     0.97074
      H   18    0.03129      0.00000     0.96871    0.00000     0.96871
      H   19    0.01904      0.00000     0.98096    0.00000     0.98096
      H   20    0.02359      0.00000     0.97641    0.00000     0.97641
      H   21    0.02896      0.00000     0.97104    0.00000     0.97104
      H   22    0.02937      0.00000     0.97063    0.00000     0.97063
      H   23    0.03710      0.00000     0.96290    0.00000     0.96290
      H   24    0.19016      0.00000     0.80984    0.00000     0.80984
      H   25    0.01990      0.00000     0.98010    0.00000     0.98010
      H   26    0.03570      0.00000     0.96430    0.00000     0.96430
      H   27    0.03877      0.00000     0.96123    0.00000     0.96123
      H   28    0.03708      0.00000     0.96292    0.00000     0.96292
      H   29    0.03768      0.00000     0.96232    0.00000     0.96232
      H   30    0.03088      0.00000     0.96912    0.00000     0.96912
      H   31    0.03873      0.00000     0.96127    0.00000     0.96127
 =======================================================================
   * Total *    0.00000     21.99954    66.00046    0.00000    88.00000

 Normal termination of Gaussian 09 at Tue Aug  3 16:37:11 2021.
