 Gaussian 09, Revision C.01,
 Gaussian 09:  EM64L-G09RevC.01 23-Sep-2011

 ------------------------
 # rhf/STO-3G nmr pop=nbo
 ------------------------

 99/9=1/99;
 -------
 comment
 -------
 Charge =  0 Multiplicity = 1

                         Standard orientation:
 ---------------------------------------------------------------------
 Center     Atomic      Atomic             Coordinates (Angstroms)
 Number     Number       Type             X           Y           Z
 ---------------------------------------------------------------------
      1          6           0        2.647655   -1.069211   -1.146379
      2          6           0        2.360659   -0.039151   -0.048691
      3          6           0        0.099786    1.224714   -0.201222
      4          6           0        0.203391   -1.084953    0.852081
      5          6           0       -0.534622   -0.178631   -0.163143
      6          6           0        1.649714   -0.679126    1.142853
      7          6           0        1.583541    1.172835   -0.598585
      8          8           0       -0.010028    1.860905    1.071187
      9          6           0       -2.070574   -0.181646    0.109830
     10          6           0       -2.655572   -1.598160    0.010230
     11          6           0       -2.840107    0.731496   -0.851481
     12          1           0        3.222018   -1.911215   -0.745432
     13          1           0        1.731148   -1.468177   -1.590207
     14          1           0        3.240060   -0.619062   -1.950347
     15          1           0        3.339095    0.320457    0.297090
     16          1           0       -0.405103    1.871480   -0.925871
     17          1           0        0.194239   -2.113672    0.469423
     18          1           0       -0.332874   -1.112848    1.809004
     19          1           0       -0.390526   -0.614507   -1.161973
     20          1           0        2.207926   -1.552591    1.501617
     21          1           0        1.654830    0.034993    1.976663
     22          1           0        1.660296    1.190410   -1.693008
     23          1           0        2.074723    2.087608   -0.241556
     24          1           0       -0.953644    2.013336    1.246040
     25          1           0       -2.254493    0.179289    1.129836
     26          1           0       -2.469704   -2.033680   -0.977440
     27          1           0       -2.227178   -2.265820    0.763663
     28          1           0       -3.738711   -1.584081    0.174164
     29          1           0       -2.616437    0.486705   -1.895208
     30          1           0       -2.597457    1.784873   -0.683586
     31          1           0       -3.921214    0.630265   -0.705317
 ---------------------------------------------------------------------

 SCF Done:  E(RHF) =  -459.610018781     A.U. after   10 cycles

      1  C    Isotropic =   220.4025   Anisotropy =    27.1566

      2  C    Isotropic =   217.3179   Anisotropy =     5.5777

      3  C    Isotropic =   190.1149   Anisotropy =    37.3695

      4  C    Isotropic =   218.0197   Anisotropy =    17.9882

      5  C    Isotropic =   211.1953   Anisotropy =    17.0553

      6  C    Isotropic =   218.6512   Anisotropy =    11.7563

      7  C    Isotropic =   215.0792   Anisotropy =    17.4472

      8  O    Isotropic =   363.9676   Anisotropy =    77.5221

      9  C    Isotropic =   213.0942   Anisotropy =    17.4386

     10  C    Isotropic =   221.2252   Anisotropy =    25.7781

     11  C    Isotropic =   222.1645   Anisotropy =    23.9923

     12  H    Isotropic =    32.5476   Anisotropy =    14.2976

     13  H    Isotropic =    32.6353   Anisotropy =     7.7553

     14  H    Isotropic =    32.5092   Anisotropy =    14.1306

     15  H    Isotropic =    32.2273   Anisotropy =    15.4133

     16  H    Isotropic =    31.9020   Anisotropy =     9.7962

     17  H    Isotropic =    32.3130   Anisotropy =    11.3650

     18  H    Isotropic =    32.4884   Anisotropy =    11.2017

     19  H    Isotropic =    32.9394   Anisotropy =     8.3926

     20  H    Isotropic =    32.4877   Anisotropy =    14.8700

     21  H    Isotropic =    31.9538   Anisotropy =    12.5015

     22  H    Isotropic =    32.5025   Anisotropy =    12.1325

     23  H    Isotropic =    31.5984   Anisotropy =    14.2364

     24  H    Isotropic =    34.7876   Anisotropy =    16.9204

     25  H    Isotropic =    32.9583   Anisotropy =     9.6865

     26  H    Isotropic =    32.6807   Anisotropy =    11.1466

     27  H    Isotropic =    32.3385   Anisotropy =    10.8861

     28  H    Isotropic =    32.5562   Anisotropy =    14.3188

     29  H    Isotropic =    32.7475   Anisotropy =    11.1458

     30  H    Isotropic =    32.7391   Anisotropy =    10.9804

     31  H    Isotropic =    32.6130   Anisotropy =    14.2035

 The electronic state is 1-A.
 Alpha  occ. eigenvalues --  -20.23498 -11.08369 -11.05239 -11.04277 -11.04090
 Alpha  occ. eigenvalues --  -11.03666 -11.03442 -11.03361 -11.03215 -11.02863
 Alpha  occ. eigenvalues --  -11.02771  -1.27705  -1.07676  -1.03860  -0.96282
 Alpha  occ. eigenvalues --   -0.94873  -0.89348  -0.88222  -0.79392  -0.78442
 Alpha  occ. eigenvalues --   -0.73313  -0.67083  -0.63638  -0.61437  -0.60576
 Alpha  occ. eigenvalues --   -0.57074  -0.55861  -0.53359  -0.53068  -0.52805
 Alpha  occ. eigenvalues --   -0.50824  -0.50376  -0.49270  -0.48812  -0.46333
 Alpha  occ. eigenvalues --   -0.45237  -0.43722  -0.43352  -0.42633  -0.40183
 Alpha  occ. eigenvalues --   -0.39530  -0.38845  -0.36300  -0.32813
 Alpha virt. eigenvalues --    0.52618   0.55415   0.56844   0.59622   0.60952
 Alpha virt. eigenvalues --    0.61437   0.62223   0.64046   0.64844   0.66715
 Alpha virt. eigenvalues --    0.67973   0.69501   0.69728   0.70872   0.71429

 Mulliken atomic charges:
              1
     1  C   -0.173266
     2  C   -0.023520
     3  C    0.075267
     4  C   -0.100340
     5  C   -0.041611
     6  C   -0.101085
     7  C   -0.106976
     8  O   -0.315977
     9  C   -0.022504
    10  C   -0.172889
    11  C   -0.175793
    12  H    0.052533
    13  H    0.050580
    14  H    0.051789
    15  H    0.049592
    16  H    0.043069
    17  H    0.047620
    18  H    0.050540
    19  H    0.045579
    20  H    0.048869
    21  H    0.058971
    22  H    0.052283
    23  H    0.062593
    24  H    0.176094
    25  H    0.043322
    26  H    0.053061
    27  H    0.057158
    28  H    0.054370
    29  H    0.054935
    30  H    0.049454
    31  H    0.056283
 Sum of Mulliken atomic charges =   0.00000

 Dipole moment (field-independent basis, Debye):
    X=             -1.0002    Y=             -0.4056    Z=             -0.7499  Tot=              1.3143
 Quadrupole moment (field-independent basis, Debye-Ang):
   XX=            -66.2177   YY=            -69.1244   ZZ=            -68.2915
   XY=             -1.9773   XZ=             -1.4987   YZ=             -1.4302

 Summary of Natural Population Analysis:

                                       Natural Population
                Natural  -----------------------------------------------
    Atom  No    Charge         Core      Valence    Rydberg      Total
 -----------------------------------------------------------------------
      C    1   -0.12785      1.99997     4.12788    0.00000     6.12785
      C    2    0.01422      1.99997     3.98582    0.00000     5.98578
      C    3    0.14309      1.99988     3.85703    0.00000     5.85691
      C    4   -0.06221      1.99995     4.06226    0.00000     6.06221
      C    5   -0.02100      1.99995     4.02104    0.00000     6.02100
      C    6   -0.06522      1.99996     4.06526    0.00000     6.06522
      C    7   -0.08225      1.99995     4.08230    0.00000     6.08225
      O    8   -0.33712      1.99999     6.33713    0.00000     8.33712
      C    9    0.01989      1.99996     3.98016    0.00000     5.98011
      C   10   -0.12861      1.99997     4.12864    0.00000     6.12861
      C   11   -0.13176      1.99997     4.13179    0.00000     6.13176
      H   12    0.03527      0.00000     0.96473    0.00000     0.96473
      H   13    0.03316      0.00000     0.96684    0.00000     0.96684
      H   14    0.03461      0.00000     0.96539    0.00000     0.96539
      H   15    0.02534      0.00000     0.97466    0.00000     0.97466
      H   16    0.00724      0.00000     0.99276    0.00000     0.99276
      H   17    0.02657      0.00000     0.97343    0.00000     0.97343
      H   18    0.02944      0.00000     0.97056    0.00000     0.97056
      H   19    0.02087      0.00000     0.97913    0.00000     0.97913
      H   20    0.02867      0.00000     0.97133    0.00000     0.97133
      H   21    0.03730      0.00000     0.96270    0.00000     0.96270
      H   22    0.03175      0.00000     0.96825    0.00000     0.96825
      H   23    0.04130      0.00000     0.95870    0.00000     0.95870
      H   24    0.18849      0.00000     0.81151    0.00000     0.81151
      H   25    0.01817      0.00000     0.98183    0.00000     0.98183
      H   26    0.03557      0.00000     0.96443    0.00000     0.96443
      H   27    0.03912      0.00000     0.96088    0.00000     0.96088
      H   28    0.03695      0.00000     0.96305    0.00000     0.96305
      H   29    0.03759      0.00000     0.96241    0.00000     0.96241
      H   30    0.03244      0.00000     0.96756    0.00000     0.96756
      H   31    0.03898      0.00000     0.96102    0.00000     0.96102
 =======================================================================
   * Total *    0.00000     21.99953    66.00047    0.00000    88.00000

 Normal termination of Gaussian 09 at Tue Aug  3 16:38:18 2021.
