 Gaussian 09, Revision C.01,
 Gaussian 09:  EM64L-G09RevC.01 23-Sep-2011

 ------------------------
 # rhf/STO-3G nmr pop=nbo
 ------------------------

 99/9=1/99;
 -------
 comment
 -------
 Charge =  0 Multiplicity = 1

                         Standard orientation:
 ---------------------------------------------------------------------
 Center     Atomic      Atomic             Coordinates (Angstroms)
 Number     Number       Type             X           Y           Z
 ---------------------------------------------------------------------
      1          6           0        3.185261    0.321727   -0.387506
      2          6           0        2.115970   -0.114153    0.619067
      3          6           0        0.083618    1.094930   -0.364247
      4          6           0        0.516697   -1.328647   -0.961300
      5          6           0       -0.564386   -0.236275   -0.806833
      6          6           0        1.475800   -1.448365    0.220031
      7          6           0        1.051436    0.969855    0.814925
      8          8           0       -0.888015    2.084888   -0.054256
      9          6           0       -1.821843   -0.747776   -0.028240
     10          6           0       -3.110659   -0.072648   -0.524825
     11          6           0       -1.770828   -0.646218    1.494961
     12          1           0        3.666067    1.249722   -0.059896
     13          1           0        3.965590   -0.441989   -0.474160
     14          1           0        2.773864    0.493348   -1.386332
     15          1           0        2.628566   -0.260414    1.578920
     16          1           0        0.654234    1.488037   -1.215442
     17          1           0        1.103962   -1.102924   -1.861125
     18          1           0        0.053427   -2.303502   -1.154616
     19          1           0       -0.930172   -0.059036   -1.829765
     20          1           0        2.257761   -2.177968   -0.024607
     21          1           0        0.943341   -1.865007    1.080750
     22          1           0        1.530501    1.941961    0.992222
     23          1           0        0.497942    0.770184    1.738389
     24          1           0       -1.393351    2.259299   -0.866506
     25          1           0       -1.941828   -1.812804   -0.269596
     26          1           0       -3.158476    0.983639   -0.247797
     27          1           0       -3.201485   -0.148031   -1.613391
     28          1           0       -3.989307   -0.563413   -0.090910
     29          1           0       -1.762479    0.393283    1.835391
     30          1           0       -0.903234   -1.159941    1.911315
     31          1           0       -2.657196   -1.118116    1.935003
 ---------------------------------------------------------------------

 SCF Done:  E(RHF) =  -459.609063805     A.U. after   10 cycles

      1  C    Isotropic =   222.5863   Anisotropy =    25.6665

      2  C    Isotropic =   216.4135   Anisotropy =     5.8287

      3  C    Isotropic =   189.3460   Anisotropy =    41.9279

      4  C    Isotropic =   216.0224   Anisotropy =    21.2003

      5  C    Isotropic =   211.0105   Anisotropy =    15.4153

      6  C    Isotropic =   218.9792   Anisotropy =    11.3806

      7  C    Isotropic =   218.4191   Anisotropy =    15.0731

      8  O    Isotropic =   361.0381   Anisotropy =    87.9556

      9  C    Isotropic =   210.3199   Anisotropy =    22.2691

     10  C    Isotropic =   218.8542   Anisotropy =    30.0582

     11  C    Isotropic =   222.5515   Anisotropy =    18.5850

     12  H    Isotropic =    32.5500   Anisotropy =    14.2248

     13  H    Isotropic =    32.6176   Anisotropy =    14.5125

     14  H    Isotropic =    32.6056   Anisotropy =     8.4958

     15  H    Isotropic =    32.3409   Anisotropy =    14.8742

     16  H    Isotropic =    31.9318   Anisotropy =     9.5183

     17  H    Isotropic =    32.4988   Anisotropy =    12.4084

     18  H    Isotropic =    32.5569   Anisotropy =    13.2851

     19  H    Isotropic =    32.7971   Anisotropy =    11.7126

     20  H    Isotropic =    32.6355   Anisotropy =    14.8703

     21  H    Isotropic =    32.5418   Anisotropy =    11.5262

     22  H    Isotropic =    32.1733   Anisotropy =    13.9562

     23  H    Isotropic =    32.1734   Anisotropy =    10.5393

     24  H    Isotropic =    35.0040   Anisotropy =    17.4699

     25  H    Isotropic =    32.5555   Anisotropy =    11.3827

     26  H    Isotropic =    32.4234   Anisotropy =     9.2069

     27  H    Isotropic =    32.7024   Anisotropy =    12.5217

     28  H    Isotropic =    32.4125   Anisotropy =    14.6482

     29  H    Isotropic =    32.2292   Anisotropy =     8.3196

     30  H    Isotropic =    32.5959   Anisotropy =     9.4725

     31  H    Isotropic =    32.5101   Anisotropy =    14.9663

 The electronic state is 1-A.
 Alpha  occ. eigenvalues --  -20.23973 -11.08646 -11.04738 -11.04607 -11.04174
 Alpha  occ. eigenvalues --  -11.03730 -11.03587 -11.03386 -11.03100 -11.02764
 Alpha  occ. eigenvalues --  -11.02517  -1.28049  -1.08119  -1.03307  -0.96903
 Alpha  occ. eigenvalues --   -0.94611  -0.89252  -0.88069  -0.79537  -0.78689
 Alpha  occ. eigenvalues --   -0.73451  -0.67707  -0.62056  -0.61685  -0.59452
 Alpha  occ. eigenvalues --   -0.57807  -0.56134  -0.54008  -0.53069  -0.52712
 Alpha  occ. eigenvalues --   -0.51086  -0.50342  -0.49579  -0.48468  -0.46201
 Alpha  occ. eigenvalues --   -0.45874  -0.42986  -0.42517  -0.42066  -0.41933
 Alpha  occ. eigenvalues --   -0.39495  -0.38251  -0.36492  -0.32908
 Alpha virt. eigenvalues --    0.52292   0.55395   0.57625   0.59412   0.60610
 Alpha virt. eigenvalues --    0.61536   0.62375   0.63452   0.65255   0.66194
 Alpha virt. eigenvalues --    0.69396   0.70191   0.70793   0.71150   0.71780

 Mulliken atomic charges:
              1
     1  C   -0.174525
     2  C   -0.023509
     3  C    0.077659
     4  C   -0.100974
     5  C   -0.044109
     6  C   -0.102483
     7  C   -0.109167
     8  O   -0.312542
     9  C   -0.018113
    10  C   -0.174780
    11  C   -0.177796
    12  H    0.054484
    13  H    0.053561
    14  H    0.051955
    15  H    0.050825
    16  H    0.039147
    17  H    0.046391
    18  H    0.051610
    19  H    0.040754
    20  H    0.050613
    21  H    0.049521
    22  H    0.056845
    23  H    0.060175
    24  H    0.178164
    25  H    0.047344
    26  H    0.057527
    27  H    0.047959
    28  H    0.053190
    29  H    0.065175
    30  H    0.052643
    31  H    0.052454
 Sum of Mulliken atomic charges =   0.00000

 Dipole moment (field-independent basis, Debye):
    X=              0.2171    Y=             -0.6975    Z=             -1.1240  Tot=              1.3405
 Quadrupole moment (field-independent basis, Debye-Ang):
   XX=            -67.3649   YY=            -69.5385   ZZ=            -66.4678
   XY=              0.3922   XZ=              1.6073   YZ=             -2.7005

 Summary of Natural Population Analysis:

                                       Natural Population
                Natural  -----------------------------------------------
    Atom  No    Charge         Core      Valence    Rydberg      Total
 -----------------------------------------------------------------------
      C    1   -0.12969      1.99997     4.12972    0.00000     6.12969
      C    2    0.01579      1.99997     3.98424    0.00000     5.98421
      C    3    0.14539      1.99989     3.85473    0.00000     5.85461
      C    4   -0.06282      1.99996     4.06286    0.00000     6.06282
      C    5   -0.02268      1.99995     4.02273    0.00000     6.02268
      C    6   -0.06592      1.99996     4.06596    0.00000     6.06592
      C    7   -0.08654      1.99995     4.08659    0.00000     6.08654
      O    8   -0.33336      1.99999     6.33337    0.00000     8.33336
      C    9    0.02400      1.99996     3.97604    0.00000     5.97600
      C   10   -0.13012      1.99997     4.13015    0.00000     6.13012
      C   11   -0.13484      1.99997     4.13488    0.00000     6.13484
      H   12    0.03720      0.00000     0.96280    0.00000     0.96280
      H   13    0.03637      0.00000     0.96363    0.00000     0.96363
      H   14    0.03465      0.00000     0.96535    0.00000     0.96535
      H   15    0.02655      0.00000     0.97345    0.00000     0.97345
      H   16    0.00383      0.00000     0.99617    0.00000     0.99617
      H   17    0.02539      0.00000     0.97461    0.00000     0.97461
      H   18    0.03056      0.00000     0.96944    0.00000     0.96944
      H   19    0.01595      0.00000     0.98405    0.00000     0.98405
      H   20    0.03032      0.00000     0.96968    0.00000     0.96968
      H   21    0.02849      0.00000     0.97151    0.00000     0.97151
      H   22    0.03619      0.00000     0.96381    0.00000     0.96381
      H   23    0.03853      0.00000     0.96147    0.00000     0.96147
      H   24    0.19078      0.00000     0.80922    0.00000     0.80922
      H   25    0.02177      0.00000     0.97823    0.00000     0.97823
      H   26    0.03917      0.00000     0.96083    0.00000     0.96083
      H   27    0.03084      0.00000     0.96916    0.00000     0.96916
      H   28    0.03596      0.00000     0.96404    0.00000     0.96404
      H   29    0.04697      0.00000     0.95303    0.00000     0.95303
      H   30    0.03529      0.00000     0.96471    0.00000     0.96471
      H   31    0.03596      0.00000     0.96404    0.00000     0.96404
 =======================================================================
   * Total *    0.00000     21.99953    66.00047    0.00000    88.00000

 Normal termination of Gaussian 09 at Tue Aug  3 16:37:58 2021.
