 Gaussian 09, Revision C.01,
 Gaussian 09:  EM64L-G09RevC.01 23-Sep-2011

 ------------------------
 # rhf/STO-3G nmr pop=nbo
 ------------------------

 99/9=1/99;
 -------
 comment
 -------
 Charge =  0 Multiplicity = 1

                         Standard orientation:
 ---------------------------------------------------------------------
 Center     Atomic      Atomic             Coordinates (Angstroms)
 Number     Number       Type             X           Y           Z
 ---------------------------------------------------------------------
      1          6           0        3.518348   -0.078766   -0.009543
      2          6           0        2.125844   -0.361940    0.555934
      3          6           0        0.302897    0.993998   -0.595356
      4          6           0       -0.056418   -1.484660   -0.059795
      5          6           0       -0.687678   -0.200537   -0.645782
      6          6           0        1.458934   -1.503348   -0.229346
      7          6           0        1.264596    0.912266    0.589020
      8          8           0       -0.360479    2.251071   -0.578665
      9          6           0       -2.119913    0.083451   -0.099211
     10          6           0       -2.169472    0.483660    1.377758
     11          6           0       -3.059082   -1.106479   -0.336066
     12          1           0        3.462629    0.293881   -1.037919
     13          1           0        4.037487    0.672655    0.594793
     14          1           0        4.129625   -0.987460   -0.009256
     15          1           0        2.260724   -0.691904    1.594766
     16          1           0        0.907335    0.981650   -1.512113
     17          1           0       -0.484806   -2.362370   -0.558406
     18          1           0       -0.287626   -1.587070    1.005969
     19          1           0       -0.830705   -0.394923   -1.720292
     20          1           0        1.700777   -1.433329   -1.297748
     21          1           0        1.859444   -2.464025    0.116227
     22          1           0        1.889371    1.813243    0.633229
     23          1           0        0.688152    0.928929    1.522295
     24          1           0       -0.875875    2.319465   -1.400385
     25          1           0       -2.536005    0.920016   -0.675891
     26          1           0       -1.782187   -0.303731    2.030678
     27          1           0       -1.600536    1.397361    1.567961
     28          1           0       -3.202710    0.683311    1.683781
     29          1           0       -2.784194   -1.970451    0.277522
     30          1           0       -3.044608   -1.412333   -1.387382
     31          1           0       -4.090788   -0.837348   -0.084192
 ---------------------------------------------------------------------

 SCF Done:  E(RHF) =  -459.609919077     A.U. after   10 cycles

      1  C    Isotropic =   220.8042   Anisotropy =    27.2563

      2  C    Isotropic =   216.0965   Anisotropy =     9.6176

      3  C    Isotropic =   188.8010   Anisotropy =    42.8458

      4  C    Isotropic =   219.5386   Anisotropy =    13.1964

      5  C    Isotropic =   210.1791   Anisotropy =    16.3581

      6  C    Isotropic =   217.1443   Anisotropy =    17.1581

      7  C    Isotropic =   217.0636   Anisotropy =    17.7695

      8  O    Isotropic =   362.9977   Anisotropy =    79.7846

      9  C    Isotropic =   214.6898   Anisotropy =    12.4245

     10  C    Isotropic =   224.2094   Anisotropy =    20.2575

     11  C    Isotropic =   221.2291   Anisotropy =    26.1386

     12  H    Isotropic =    32.5885   Anisotropy =    10.2857

     13  H    Isotropic =    32.4336   Anisotropy =    14.1001

     14  H    Isotropic =    32.4579   Anisotropy =    14.0379

     15  H    Isotropic =    32.3560   Anisotropy =    13.1354

     16  H    Isotropic =    31.9197   Anisotropy =     9.1776

     17  H    Isotropic =    32.5058   Anisotropy =    13.3886

     18  H    Isotropic =    32.7053   Anisotropy =     9.2795

     19  H    Isotropic =    32.5593   Anisotropy =    11.2762

     20  H    Isotropic =    32.9445   Anisotropy =    10.7242

     21  H    Isotropic =    32.3862   Anisotropy =    14.5510

     22  H    Isotropic =    32.1666   Anisotropy =    13.1077

     23  H    Isotropic =    32.1545   Anisotropy =    10.2747

     24  H    Isotropic =    34.8095   Anisotropy =    18.0576

     25  H    Isotropic =    32.4923   Anisotropy =    11.7102

     26  H    Isotropic =    32.7178   Anisotropy =     9.5490

     27  H    Isotropic =    32.1427   Anisotropy =     9.6143

     28  H    Isotropic =    32.5889   Anisotropy =    14.8527

     29  H    Isotropic =    32.5732   Anisotropy =     9.7428

     30  H    Isotropic =    32.6361   Anisotropy =    12.7668

     31  H    Isotropic =    32.4762   Anisotropy =    14.6240

 The electronic state is 1-A.
 Alpha  occ. eigenvalues --  -20.24052 -11.08454 -11.04754 -11.04588 -11.04089
 Alpha  occ. eigenvalues --  -11.03730 -11.03667 -11.03298 -11.03074 -11.03064
 Alpha  occ. eigenvalues --  -11.02483  -1.28016  -1.08171  -1.03552  -0.96784
 Alpha  occ. eigenvalues --   -0.94489  -0.88724  -0.87889  -0.80202  -0.78755
 Alpha  occ. eigenvalues --   -0.72688  -0.67229  -0.63607  -0.61340  -0.60138
 Alpha  occ. eigenvalues --   -0.57267  -0.55729  -0.54292  -0.52883  -0.52330
 Alpha  occ. eigenvalues --   -0.51119  -0.50132  -0.49312  -0.48143  -0.47003
 Alpha  occ. eigenvalues --   -0.45625  -0.43007  -0.42665  -0.41885  -0.41814
 Alpha  occ. eigenvalues --   -0.39822  -0.38202  -0.36477  -0.33011
 Alpha virt. eigenvalues --    0.52284   0.55803   0.57819   0.59360   0.60201
 Alpha virt. eigenvalues --    0.61130   0.61961   0.64647   0.66180   0.66863
 Alpha virt. eigenvalues --    0.67929   0.68779   0.70545   0.71469   0.71908

 Mulliken atomic charges:
              1
     1  C   -0.170843
     2  C   -0.024073
     3  C    0.077670
     4  C   -0.102487
     5  C   -0.043007
     6  C   -0.100504
     7  C   -0.109546
     8  O   -0.311119
     9  C   -0.017127
    10  C   -0.177407
    11  C   -0.173116
    12  H    0.051640
    13  H    0.054047
    14  H    0.053209
    15  H    0.048919
    16  H    0.037319
    17  H    0.051524
    18  H    0.049643
    19  H    0.038537
    20  H    0.046874
    21  H    0.051592
    22  H    0.059863
    23  H    0.055393
    24  H    0.177560
    25  H    0.045719
    26  H    0.050589
    27  H    0.065879
    28  H    0.052964
    29  H    0.054576
    30  H    0.051121
    31  H    0.054590
 Sum of Mulliken atomic charges =   0.00000

 Dipole moment (field-independent basis, Debye):
    X=             -0.0999    Y=             -1.0049    Z=             -0.9154  Tot=              1.3629
 Quadrupole moment (field-independent basis, Debye-Ang):
   XX=            -67.4130   YY=            -71.2928   ZZ=            -65.0861
   XY=             -0.7241   XZ=              1.3249   YZ=             -2.1151

 Summary of Natural Population Analysis:

                                       Natural Population
                Natural  -----------------------------------------------
    Atom  No    Charge         Core      Valence    Rydberg      Total
 -----------------------------------------------------------------------
      C    1   -0.12597      1.99998     4.12599    0.00000     6.12597
      C    2    0.01511      1.99997     3.98492    0.00000     5.98489
      C    3    0.14540      1.99989     3.85471    0.00000     5.85460
      C    4   -0.06494      1.99996     4.06498    0.00000     6.06494
      C    5   -0.02119      1.99995     4.02124    0.00000     6.02119
      C    6   -0.06282      1.99996     4.06286    0.00000     6.06282
      C    7   -0.08696      1.99996     4.08700    0.00000     6.08696
      O    8   -0.33182      1.99999     6.33183    0.00000     8.33182
      C    9    0.02431      1.99996     3.97573    0.00000     5.97569
      C   10   -0.13416      1.99997     4.13419    0.00000     6.13416
      C   11   -0.12884      1.99997     4.12887    0.00000     6.12884
      H   12    0.03435      0.00000     0.96565    0.00000     0.96565
      H   13    0.03659      0.00000     0.96341    0.00000     0.96341
      H   14    0.03586      0.00000     0.96414    0.00000     0.96414
      H   15    0.02446      0.00000     0.97554    0.00000     0.97554
      H   16    0.00189      0.00000     0.99811    0.00000     0.99811
      H   17    0.03066      0.00000     0.96934    0.00000     0.96934
      H   18    0.02829      0.00000     0.97171    0.00000     0.97171
      H   19    0.01349      0.00000     0.98651    0.00000     0.98651
      H   20    0.02615      0.00000     0.97385    0.00000     0.97385
      H   21    0.03095      0.00000     0.96905    0.00000     0.96905
      H   22    0.03897      0.00000     0.96103    0.00000     0.96103
      H   23    0.03429      0.00000     0.96571    0.00000     0.96571
      H   24    0.19023      0.00000     0.80977    0.00000     0.80977
      H   25    0.02054      0.00000     0.97946    0.00000     0.97946
      H   26    0.03362      0.00000     0.96638    0.00000     0.96638
      H   27    0.04729      0.00000     0.95271    0.00000     0.95271
      H   28    0.03627      0.00000     0.96373    0.00000     0.96373
      H   29    0.03687      0.00000     0.96313    0.00000     0.96313
      H   30    0.03383      0.00000     0.96617    0.00000     0.96617
      H   31    0.03726      0.00000     0.96274    0.00000     0.96274
 =======================================================================
   * Total *    0.00000     21.99954    66.00046    0.00000    88.00000

 Normal termination of Gaussian 09 at Tue Aug  3 16:37:33 2021.
