 Gaussian 09, Revision C.01,
 Gaussian 09:  EM64L-G09RevC.01 23-Sep-2011

 ------------------------
 # rhf/STO-3G nmr pop=nbo
 ------------------------

 99/9=1/99;
 -------
 comment
 -------
 Charge =  0 Multiplicity = 1

                         Standard orientation:
 ---------------------------------------------------------------------
 Center     Atomic      Atomic             Coordinates (Angstroms)
 Number     Number       Type             X           Y           Z
 ---------------------------------------------------------------------
      1          6           0       -3.641909   -0.473997    0.007841
      2          6           0       -2.183922   -0.116267   -0.276832
      3          6           0       -0.132577    1.093697    0.624323
      4          6           0        0.138247   -1.064656   -0.674951
      5          6           0        0.700532   -0.198863    0.467804
      6          6           0       -1.341414   -1.385395   -0.455576
      7          6           0       -1.614214    0.765902    0.845577
      8          8           0       -0.012885    1.918687   -0.529396
      9          6           0        2.230964    0.069912    0.356330
     10          6           0        2.715763    0.566481   -1.008674
     11          6           0        3.030446   -1.184810    0.736836
     12          1           0       -3.738261   -1.045699    0.937108
     13          1           0       -4.252127    0.430437    0.101788
     14          1           0       -4.059475   -1.076845   -0.805445
     15          1           0       -2.157207    0.451095   -1.216502
     16          1           0        0.240550    1.668511    1.479944
     17          1           0        0.692109   -2.006676   -0.749423
     18          1           0        0.247336   -0.551898   -1.637775
     19          1           0        0.551831   -0.762951    1.400928
     20          1           0       -1.442324   -2.028317    0.428341
     21          1           0       -1.714753   -1.962793   -1.309916
     22          1           0       -1.731743    0.259811    1.812197
     23          1           0       -2.192983    1.696691    0.893864
     24          1           0       -0.532781    2.724863   -0.370782
     25          1           0        2.487171    0.839581    1.096737
     26          1           0        2.540203   -0.172145   -1.797050
     27          1           0        2.236072    1.503021   -1.299954
     28          1           0        3.794409    0.759533   -0.980430
     29          1           0        2.879413   -1.996476    0.018327
     30          1           0        2.741146   -1.547725    1.728685
     31          1           0        4.102991   -0.963533    0.768461
 ---------------------------------------------------------------------

 SCF Done:  E(RHF) =  -459.622839673     A.U. after   10 cycles

      1  C    Isotropic =   221.0600   Anisotropy =    28.3150

      2  C    Isotropic =   215.9296   Anisotropy =     8.4429

      3  C    Isotropic =   187.1240   Anisotropy =    30.6493

      4  C    Isotropic =   219.5822   Anisotropy =    13.6971

      5  C    Isotropic =   208.8967   Anisotropy =    16.3557

      6  C    Isotropic =   215.2327   Anisotropy =    17.2171

      7  C    Isotropic =   212.6581   Anisotropy =    19.0307

      8  O    Isotropic =   357.9613   Anisotropy =    98.5785

      9  C    Isotropic =   212.3477   Anisotropy =    17.7212

     10  C    Isotropic =   223.3545   Anisotropy =    21.7797

     11  C    Isotropic =   220.2517   Anisotropy =    28.4273

     12  H    Isotropic =    32.7102   Anisotropy =    11.6498

     13  H    Isotropic =    32.5177   Anisotropy =    13.6596

     14  H    Isotropic =    32.4077   Anisotropy =    13.8487

     15  H    Isotropic =    32.3979   Anisotropy =    10.0880

     16  H    Isotropic =    31.9383   Anisotropy =    10.5999

     17  H    Isotropic =    32.4897   Anisotropy =    12.8356

     18  H    Isotropic =    32.2726   Anisotropy =     9.4291

     19  H    Isotropic =    32.8031   Anisotropy =     9.2297

     20  H    Isotropic =    32.8328   Anisotropy =    11.1038

     21  H    Isotropic =    32.3151   Anisotropy =    13.9859

     22  H    Isotropic =    32.6900   Anisotropy =    10.9312

     23  H    Isotropic =    32.8024   Anisotropy =    12.8292

     24  H    Isotropic =    35.1678   Anisotropy =    19.6176

     25  H    Isotropic =    32.3641   Anisotropy =    11.3390

     26  H    Isotropic =    32.6034   Anisotropy =     9.7014

     27  H    Isotropic =    31.8558   Anisotropy =    10.7106

     28  H    Isotropic =    32.5817   Anisotropy =    14.7826

     29  H    Isotropic =    32.4241   Anisotropy =     9.9848

     30  H    Isotropic =    32.5683   Anisotropy =    12.5653

     31  H    Isotropic =    32.4063   Anisotropy =    14.5323

 The electronic state is 1-A.
 Alpha  occ. eigenvalues --  -20.23777 -11.08507 -11.04360 -11.04252 -11.04160
 Alpha  occ. eigenvalues --  -11.03738 -11.03244 -11.03050 -11.03042 -11.02560
 Alpha  occ. eigenvalues --  -11.01796  -1.28007  -1.07667  -1.03325  -0.96456
 Alpha  occ. eigenvalues --   -0.95056  -0.88016  -0.87630  -0.79722  -0.77315
 Alpha  occ. eigenvalues --   -0.72906  -0.69591  -0.62269  -0.59617  -0.58587
 Alpha  occ. eigenvalues --   -0.57685  -0.56971  -0.53858  -0.52926  -0.51939
 Alpha  occ. eigenvalues --   -0.51405  -0.50133  -0.49357  -0.47623  -0.46287
 Alpha  occ. eigenvalues --   -0.44361  -0.43592  -0.42792  -0.42232  -0.40534
 Alpha  occ. eigenvalues --   -0.39891  -0.38484  -0.35925  -0.33074
 Alpha virt. eigenvalues --    0.53055   0.55823   0.58484   0.60079   0.60932
 Alpha virt. eigenvalues --    0.61360   0.62921   0.65499   0.66576   0.68061
 Alpha virt. eigenvalues --    0.69225   0.70996   0.71309   0.72533   0.72884

 Mulliken atomic charges:
              1
     1  C   -0.172271
     2  C   -0.023273
     3  C    0.077931
     4  C   -0.102115
     5  C   -0.029923
     6  C   -0.098581
     7  C   -0.112339
     8  O   -0.316169
     9  C   -0.017119
    10  C   -0.177360
    11  C   -0.172507
    12  H    0.052170
    13  H    0.052172
    14  H    0.054422
    15  H    0.052923
    16  H    0.038809
    17  H    0.049621
    18  H    0.058930
    19  H    0.046111
    20  H    0.044293
    21  H    0.049723
    22  H    0.049977
    23  H    0.043996
    24  H    0.177089
    25  H    0.045850
    26  H    0.052346
    27  H    0.070502
    28  H    0.049601
    29  H    0.052558
    30  H    0.049647
    31  H    0.052990
 Sum of Mulliken atomic charges =   0.00000

 Dipole moment (field-independent basis, Debye):
    X=             -0.7731    Y=              0.3057    Z=              1.0074  Tot=              1.3061
 Quadrupole moment (field-independent basis, Debye-Ang):
   XX=            -68.3724   YY=            -65.0792   ZZ=            -67.8839
   XY=             -1.9489   XZ=              0.4881   YZ=              1.6353

 Summary of Natural Population Analysis:

                                       Natural Population
                Natural  -----------------------------------------------
    Atom  No    Charge         Core      Valence    Rydberg      Total
 -----------------------------------------------------------------------
      C    1   -0.12744      1.99997     4.12746    0.00000     6.12744
      C    2    0.01427      1.99997     3.98576    0.00000     5.98573
      C    3    0.14577      1.99989     3.85435    0.00000     5.85423
      C    4   -0.06561      1.99996     4.06565    0.00000     6.06561
      C    5   -0.00818      1.99995     4.00823    0.00000     6.00818
      C    6   -0.06056      1.99996     4.06060    0.00000     6.06056
      C    7   -0.08785      1.99996     4.08788    0.00000     6.08785
      O    8   -0.33728      1.99999     6.33729    0.00000     8.33728
      C    9    0.02408      1.99996     3.97596    0.00000     5.97592
      C   10   -0.13427      1.99997     4.13431    0.00000     6.13427
      C   11   -0.12782      1.99997     4.12785    0.00000     6.12782
      H   12    0.03495      0.00000     0.96505    0.00000     0.96505
      H   13    0.03504      0.00000     0.96496    0.00000     0.96496
      H   14    0.03715      0.00000     0.96285    0.00000     0.96285
      H   15    0.02810      0.00000     0.97190    0.00000     0.97190
      H   16    0.00302      0.00000     0.99698    0.00000     0.99698
      H   17    0.02878      0.00000     0.97122    0.00000     0.97122
      H   18    0.03697      0.00000     0.96303    0.00000     0.96303
      H   19    0.02121      0.00000     0.97879    0.00000     0.97879
      H   20    0.02357      0.00000     0.97643    0.00000     0.97643
      H   21    0.02896      0.00000     0.97104    0.00000     0.97104
      H   22    0.02981      0.00000     0.97019    0.00000     0.97019
      H   23    0.02418      0.00000     0.97582    0.00000     0.97582
      H   24    0.18984      0.00000     0.81016    0.00000     0.81016
      H   25    0.02056      0.00000     0.97944    0.00000     0.97944
      H   26    0.03541      0.00000     0.96459    0.00000     0.96459
      H   27    0.05121      0.00000     0.94879    0.00000     0.94879
      H   28    0.03313      0.00000     0.96687    0.00000     0.96687
      H   29    0.03496      0.00000     0.96504    0.00000     0.96504
      H   30    0.03236      0.00000     0.96764    0.00000     0.96764
      H   31    0.03568      0.00000     0.96432    0.00000     0.96432
 =======================================================================
   * Total *    0.00000     21.99955    66.00045    0.00000    88.00000

 Normal termination of Gaussian 09 at Tue Aug  3 16:37:11 2021.
