 Gaussian 09, Revision C.01,
 Gaussian 09:  EM64L-G09RevC.01 23-Sep-2011

 ------------------------
 # rhf/STO-3G nmr pop=nbo
 ------------------------

 99/9=1/99;
 -------
 comment
 -------
 Charge =  0 Multiplicity = 1

                         Standard orientation:
 ---------------------------------------------------------------------
 Center     Atomic      Atomic             Coordinates (Angstroms)
 Number     Number       Type             X           Y           Z
 ---------------------------------------------------------------------
      1          6           0        3.177465    0.276733   -0.406778
      2          6           0        2.107643   -0.104320    0.621134
      3          6           0        0.081108    1.069606   -0.419326
      4          6           0        0.504371   -1.384830   -0.900077
      5          6           0       -0.568776   -0.278387   -0.804780
      6          6           0        1.458874   -1.452187    0.288707
      7          6           0        1.049157    0.993124    0.765506
      8          8           0       -0.905928    2.061325   -0.166647
      9          6           0       -1.837462   -0.742610   -0.015506
     10          6           0       -3.113306   -0.076528   -0.556325
     11          6           0       -1.796635   -0.571510    1.501812
     12          1           0        2.764822    0.405238   -1.411551
     13          1           0        3.665530    1.215458   -0.123432
     14          1           0        3.952187   -0.495710   -0.459689
     15          1           0        2.620783   -0.206756    1.586357
     16          1           0        0.644759    1.421034   -1.292922
     17          1           0        1.096048   -1.209049   -1.808108
     18          1           0        0.034506   -2.364784   -1.045840
     19          1           0       -0.925129   -0.146746   -1.838030
     20          1           0        2.236064   -2.198888    0.083727
     21          1           0        0.920709   -1.820438    1.167807
     22          1           0        1.535021    1.968737    0.899200
     23          1           0        0.492616    0.838875    1.695957
     24          1           0       -0.445348    2.895473    0.026806
     25          1           0       -1.966751   -1.816334   -0.208567
     26          1           0       -3.137972    0.997589   -0.354710
     27          1           0       -3.205630   -0.224526   -1.637410
     28          1           0       -4.001800   -0.518174   -0.091039
     29          1           0       -1.780813    0.482186    1.794920
     30          1           0       -0.936455   -1.073332    1.947267
     31          1           0       -2.690357   -1.014998    1.956233
 ---------------------------------------------------------------------

 SCF Done:  E(RHF) =  -459.609176250     A.U. after   10 cycles

      1  C    Isotropic =   222.6921   Anisotropy =    25.5407

      2  C    Isotropic =   216.5075   Anisotropy =     5.8007

      3  C    Isotropic =   189.8438   Anisotropy =    41.7641

      4  C    Isotropic =   216.0700   Anisotropy =    21.0648

      5  C    Isotropic =   211.6223   Anisotropy =    17.3728

      6  C    Isotropic =   218.9493   Anisotropy =    11.4398

      7  C    Isotropic =   216.6386   Anisotropy =    15.8989

      8  O    Isotropic =   359.2343   Anisotropy =    96.1445

      9  C    Isotropic =   210.0084   Anisotropy =    22.5792

     10  C    Isotropic =   218.8314   Anisotropy =    30.3987

     11  C    Isotropic =   222.3252   Anisotropy =    18.5318

     12  H    Isotropic =    32.6115   Anisotropy =     8.6032

     13  H    Isotropic =    32.6928   Anisotropy =    14.0850

     14  H    Isotropic =    32.6283   Anisotropy =    14.4786

     15  H    Isotropic =    32.4224   Anisotropy =    14.6877

     16  H    Isotropic =    31.9198   Anisotropy =     9.5733

     17  H    Isotropic =    32.4357   Anisotropy =    12.4855

     18  H    Isotropic =    32.4769   Anisotropy =    13.4920

     19  H    Isotropic =    32.0810   Anisotropy =    12.1216

     20  H    Isotropic =    32.6295   Anisotropy =    14.8785

     21  H    Isotropic =    32.5374   Anisotropy =    11.5493

     22  H    Isotropic =    33.0328   Anisotropy =    13.1516

     23  H    Isotropic =    32.3013   Anisotropy =    10.1795

     24  H    Isotropic =    35.1603   Anisotropy =    19.4931

     25  H    Isotropic =    32.5320   Anisotropy =    11.5842

     26  H    Isotropic =    31.8138   Anisotropy =     9.4693

     27  H    Isotropic =    32.4330   Anisotropy =    12.8327

     28  H    Isotropic =    32.4529   Anisotropy =    14.7223

     29  H    Isotropic =    32.3131   Anisotropy =     8.2572

     30  H    Isotropic =    32.6461   Anisotropy =     9.1462

     31  H    Isotropic =    32.4883   Anisotropy =    14.9809

 The electronic state is 1-A.
 Alpha  occ. eigenvalues --  -20.23871 -11.08705 -11.04907 -11.04184 -11.04072
 Alpha  occ. eigenvalues --  -11.03656 -11.03621 -11.03609 -11.03307 -11.02270
 Alpha  occ. eigenvalues --  -11.01647  -1.27992  -1.08113  -1.02977  -0.96743
 Alpha  occ. eigenvalues --   -0.94597  -0.89162  -0.87561  -0.79567  -0.78828
 Alpha  occ. eigenvalues --   -0.72968  -0.67556  -0.62052  -0.61932  -0.59261
 Alpha  occ. eigenvalues --   -0.57076  -0.55627  -0.55316  -0.53072  -0.51844
 Alpha  occ. eigenvalues --   -0.51199  -0.49713  -0.48851  -0.48397  -0.46008
 Alpha  occ. eigenvalues --   -0.45786  -0.44575  -0.42456  -0.41961  -0.39985
 Alpha  occ. eigenvalues --   -0.39317  -0.38391  -0.36161  -0.33074
 Alpha virt. eigenvalues --    0.52806   0.55546   0.56764   0.59478   0.60711
 Alpha virt. eigenvalues --    0.62172   0.62735   0.63678   0.64581   0.67552
 Alpha virt. eigenvalues --    0.68675   0.69836   0.70535   0.71774   0.72561

 Mulliken atomic charges:
              1
     1  C   -0.174951
     2  C   -0.023370
     3  C    0.078105
     4  C   -0.101169
     5  C   -0.034732
     6  C   -0.102418
     7  C   -0.117751
     8  O   -0.314035
     9  C   -0.015578
    10  C   -0.173287
    11  C   -0.177086
    12  H    0.052989
    13  H    0.052818
    14  H    0.054443
    15  H    0.049847
    16  H    0.039081
    17  H    0.046902
    18  H    0.053070
    19  H    0.051757
    20  H    0.050722
    21  H    0.049813
    22  H    0.043372
    23  H    0.058386
    24  H    0.178065
    25  H    0.045379
    26  H    0.068371
    27  H    0.048356
    28  H    0.048241
    29  H    0.062048
    30  H    0.050323
    31  H    0.052292
 Sum of Mulliken atomic charges =   0.00000

 Dipole moment (field-independent basis, Debye):
    X=              1.3810    Y=              0.1202    Z=              0.0899  Tot=              1.3891
 Quadrupole moment (field-independent basis, Debye-Ang):
   XX=            -69.9827   YY=            -64.8913   ZZ=            -67.5720
   XY=              2.7057   XZ=             -0.3376   YZ=              0.6016

 Summary of Natural Population Analysis:

                                       Natural Population
                Natural  -----------------------------------------------
    Atom  No    Charge         Core      Valence    Rydberg      Total
 -----------------------------------------------------------------------
      C    1   -0.13007      1.99997     4.13010    0.00000     6.13007
      C    2    0.01603      1.99997     3.98401    0.00000     5.98397
      C    3    0.14616      1.99989     3.85395    0.00000     5.85384
      C    4   -0.06348      1.99996     4.06352    0.00000     6.06348
      C    5   -0.01261      1.99994     4.01267    0.00000     6.01261
      C    6   -0.06588      1.99996     4.06592    0.00000     6.06588
      C    7   -0.09502      1.99996     4.09506    0.00000     6.09502
      O    8   -0.33500      1.99999     6.33500    0.00000     8.33500
      C    9    0.02645      1.99996     3.97360    0.00000     5.97355
      C   10   -0.12916      1.99997     4.12919    0.00000     6.12916
      C   11   -0.13384      1.99997     4.13387    0.00000     6.13384
      H   12    0.03559      0.00000     0.96441    0.00000     0.96441
      H   13    0.03570      0.00000     0.96430    0.00000     0.96430
      H   14    0.03721      0.00000     0.96279    0.00000     0.96279
      H   15    0.02558      0.00000     0.97442    0.00000     0.97442
      H   16    0.00335      0.00000     0.99665    0.00000     0.99665
      H   17    0.02584      0.00000     0.97416    0.00000     0.97416
      H   18    0.03205      0.00000     0.96795    0.00000     0.96795
      H   19    0.02583      0.00000     0.97417    0.00000     0.97417
      H   20    0.03044      0.00000     0.96956    0.00000     0.96956
      H   21    0.02879      0.00000     0.97121    0.00000     0.97121
      H   22    0.02407      0.00000     0.97593    0.00000     0.97593
      H   23    0.03701      0.00000     0.96299    0.00000     0.96299
      H   24    0.19072      0.00000     0.80928    0.00000     0.80928
      H   25    0.01984      0.00000     0.98016    0.00000     0.98016
      H   26    0.04885      0.00000     0.95115    0.00000     0.95115
      H   27    0.03127      0.00000     0.96873    0.00000     0.96873
      H   28    0.03125      0.00000     0.96875    0.00000     0.96875
      H   29    0.04412      0.00000     0.95588    0.00000     0.95588
      H   30    0.03310      0.00000     0.96690    0.00000     0.96690
      H   31    0.03581      0.00000     0.96419    0.00000     0.96419
 =======================================================================
   * Total *    0.00000     21.99953    66.00047    0.00000    88.00000

 Normal termination of Gaussian 09 at Tue Aug  3 16:37:35 2021.
