 Gaussian 09, Revision C.01,
 Gaussian 09:  EM64L-G09RevC.01 23-Sep-2011

 ------------------------
 # rhf/STO-3G nmr pop=nbo
 ------------------------

 99/9=1/99;
 -------
 comment
 -------
 Charge =  0 Multiplicity = 1

                         Standard orientation:
 ---------------------------------------------------------------------
 Center     Atomic      Atomic             Coordinates (Angstroms)
 Number     Number       Type             X           Y           Z
 ---------------------------------------------------------------------
      1          6           0       -3.697681   -0.075270   -0.111043
      2          6           0       -2.214920    0.019472    0.245524
      3          6           0        0.072731   -1.062378   -0.095810
      4          6           0       -0.138640    1.459059    0.086363
      5          6           0        0.646467    0.297075   -0.553332
      6          6           0       -1.634193    1.361968   -0.211945
      7          6           0       -1.433665   -1.149334   -0.373521
      8          8           0        0.271958   -1.271722    1.297343
      9          6           0        2.185235    0.485146   -0.394276
     10          6           0        2.973351   -0.670633   -1.018251
     11          6           0        2.687108    0.745464    1.028690
     12          1           0       -4.122259   -1.020591    0.242928
     13          1           0       -4.261479    0.740188    0.354133
     14          1           0       -3.852070   -0.018976   -1.193944
     15          1           0       -2.129907   -0.040836    1.338543
     16          1           0        0.556502   -1.886651   -0.631705
     17          1           0        0.238336    2.416917   -0.291412
     18          1           0       -0.001338    1.464972    1.173935
     19          1           0        0.457290    0.352710   -1.636652
     20          1           0       -1.797576    1.494626   -1.289122
     21          1           0       -2.156037    2.184982    0.290952
     22          1           0       -1.598019   -1.170391   -1.458483
     23          1           0       -1.824125   -2.090861    0.032919
     24          1           0        1.149393   -1.674220    1.408331
     25          1           0        2.442474    1.383515   -0.973896
     26          1           0        2.873670   -1.591133   -0.434349
     27          1           0        2.633284   -0.870074   -2.039783
     28          1           0        4.040152   -0.425906   -1.066897
     29          1           0        2.513794   -0.101287    1.695751
     30          1           0        2.220016    1.632161    1.466355
     31          1           0        3.767479    0.931220    1.019251
 ---------------------------------------------------------------------

 SCF Done:  E(RHF) =  -459.619411022     A.U. after   10 cycles

      1  C    Isotropic =   220.9834   Anisotropy =    28.5614

      2  C    Isotropic =   216.0114   Anisotropy =     8.9151

      3  C    Isotropic =   189.1496   Anisotropy =    37.5469

      4  C    Isotropic =   217.3823   Anisotropy =    15.4954

      5  C    Isotropic =   210.2133   Anisotropy =    15.6071

      6  C    Isotropic =   215.3048   Anisotropy =    16.3812

      7  C    Isotropic =   214.2069   Anisotropy =    18.5237

      8  O    Isotropic =   366.5261   Anisotropy =    83.4924

      9  C    Isotropic =   213.2083   Anisotropy =    17.0957

     10  C    Isotropic =   221.9043   Anisotropy =    24.0523

     11  C    Isotropic =   223.3344   Anisotropy =    21.5495

     12  H    Isotropic =    32.3810   Anisotropy =    13.7035

     13  H    Isotropic =    32.3869   Anisotropy =    13.9549

     14  H    Isotropic =    32.6974   Anisotropy =    11.7200

     15  H    Isotropic =    32.2526   Anisotropy =    10.2532

     16  H    Isotropic =    31.9383   Anisotropy =     9.5087

     17  H    Isotropic =    32.5096   Anisotropy =    13.1384

     18  H    Isotropic =    32.1877   Anisotropy =     9.2452

     19  H    Isotropic =    32.8273   Anisotropy =     9.8107

     20  H    Isotropic =    32.8180   Anisotropy =    11.2789

     21  H    Isotropic =    32.3091   Anisotropy =    14.1960

     22  H    Isotropic =    32.7819   Anisotropy =    11.1456

     23  H    Isotropic =    31.9334   Anisotropy =    13.0813

     24  H    Isotropic =    34.8686   Anisotropy =    17.6778

     25  H    Isotropic =    32.3948   Anisotropy =    12.5790

     26  H    Isotropic =    32.9995   Anisotropy =     9.5223

     27  H    Isotropic =    32.5834   Anisotropy =    12.3333

     28  H    Isotropic =    32.4741   Anisotropy =    14.5456

     29  H    Isotropic =    33.0141   Anisotropy =     9.2559

     30  H    Isotropic =    32.3136   Anisotropy =    11.0751

     31  H    Isotropic =    32.6316   Anisotropy =    14.6619

 The electronic state is 1-A.
 Alpha  occ. eigenvalues --  -20.23704 -11.08440 -11.04897 -11.04027 -11.03888
 Alpha  occ. eigenvalues --  -11.03584 -11.03446 -11.03085 -11.03060 -11.03028
 Alpha  occ. eigenvalues --  -11.02645  -1.27955  -1.07634  -1.03724  -0.96715
 Alpha  occ. eigenvalues --   -0.94917  -0.89246  -0.87488  -0.78673  -0.78269
 Alpha  occ. eigenvalues --   -0.72969  -0.69544  -0.62846  -0.60671  -0.58884
 Alpha  occ. eigenvalues --   -0.57232  -0.56699  -0.54118  -0.53056  -0.52483
 Alpha  occ. eigenvalues --   -0.50824  -0.50459  -0.49395  -0.47359  -0.45918
 Alpha  occ. eigenvalues --   -0.45423  -0.44393  -0.43216  -0.42202  -0.41284
 Alpha  occ. eigenvalues --   -0.39377  -0.38832  -0.36122  -0.32577
 Alpha virt. eigenvalues --    0.52757   0.56657   0.57185   0.59712   0.60576
 Alpha virt. eigenvalues --    0.61108   0.62304   0.65475   0.66243   0.68533
 Alpha virt. eigenvalues --    0.68623   0.70309   0.70502   0.72351   0.72676

 Mulliken atomic charges:
              1
     1  C   -0.172106
     2  C   -0.023107
     3  C    0.075679
     4  C   -0.100794
     5  C   -0.038189
     6  C   -0.099014
     7  C   -0.103365
     8  O   -0.316134
     9  C   -0.022331
    10  C   -0.173987
    11  C   -0.175521
    12  H    0.053414
    13  H    0.053385
    14  H    0.050874
    15  H    0.056703
    16  H    0.041886
    17  H    0.047244
    18  H    0.056472
    19  H    0.043401
    20  H    0.043732
    21  H    0.049231
    22  H    0.048471
    23  H    0.056741
    24  H    0.178460
    25  H    0.048510
    26  H    0.046175
    27  H    0.054055
    28  H    0.055934
    29  H    0.051554
    30  H    0.059313
    31  H    0.053317
 Sum of Mulliken atomic charges =   0.00000

 Dipole moment (field-independent basis, Debye):
    X=              0.9098    Y=             -0.2005    Z=             -0.9662  Tot=              1.3422
 Quadrupole moment (field-independent basis, Debye-Ang):
   XX=            -66.7748   YY=            -66.5193   ZZ=            -68.9352
   XY=             -1.4595   XZ=              0.9504   YZ=              0.4701

 Summary of Natural Population Analysis:

                                       Natural Population
                Natural  -----------------------------------------------
    Atom  No    Charge         Core      Valence    Rydberg      Total
 -----------------------------------------------------------------------
      C    1   -0.12711      1.99997     4.12714    0.00000     6.12711
      C    2    0.01380      1.99997     3.98623    0.00000     5.98620
      C    3    0.14289      1.99989     3.85722    0.00000     5.85711
      C    4   -0.06368      1.99996     4.06373    0.00000     6.06368
      C    5   -0.01799      1.99995     4.01804    0.00000     6.01799
      C    6   -0.06137      1.99996     4.06140    0.00000     6.06137
      C    7   -0.07848      1.99996     4.07852    0.00000     6.07848
      O    8   -0.33735      1.99999     6.33736    0.00000     8.33735
      C    9    0.01851      1.99996     3.98153    0.00000     5.98149
      C   10   -0.12953      1.99997     4.12956    0.00000     6.12953
      C   11   -0.13196      1.99997     4.13199    0.00000     6.13196
      H   12    0.03617      0.00000     0.96383    0.00000     0.96383
      H   13    0.03620      0.00000     0.96380    0.00000     0.96380
      H   14    0.03376      0.00000     0.96624    0.00000     0.96624
      H   15    0.03163      0.00000     0.96837    0.00000     0.96837
      H   16    0.00710      0.00000     0.99290    0.00000     0.99290
      H   17    0.02661      0.00000     0.97339    0.00000     0.97339
      H   18    0.03462      0.00000     0.96538    0.00000     0.96538
      H   19    0.01897      0.00000     0.98103    0.00000     0.98103
      H   20    0.02319      0.00000     0.97681    0.00000     0.97681
      H   21    0.02863      0.00000     0.97137    0.00000     0.97137
      H   22    0.02811      0.00000     0.97189    0.00000     0.97189
      H   23    0.03553      0.00000     0.96447    0.00000     0.96447
      H   24    0.19127      0.00000     0.80873    0.00000     0.80873
      H   25    0.02347      0.00000     0.97653    0.00000     0.97653
      H   26    0.02946      0.00000     0.97054    0.00000     0.97054
      H   27    0.03670      0.00000     0.96330    0.00000     0.96330
      H   28    0.03861      0.00000     0.96139    0.00000     0.96139
      H   29    0.03411      0.00000     0.96589    0.00000     0.96589
      H   30    0.04166      0.00000     0.95834    0.00000     0.95834
      H   31    0.03646      0.00000     0.96354    0.00000     0.96354
 =======================================================================
   * Total *    0.00000     21.99955    66.00045    0.00000    88.00000

 Normal termination of Gaussian 09 at Tue Aug  3 16:37:13 2021.
