 Gaussian 09, Revision C.01,
 Gaussian 09:  EM64L-G09RevC.01 23-Sep-2011

 ------------------------
 # rhf/STO-3G nmr pop=nbo
 ------------------------

 99/9=1/99;
 -------
 comment
 -------
 Charge =  0 Multiplicity = 1

                         Standard orientation:
 ---------------------------------------------------------------------
 Center     Atomic      Atomic             Coordinates (Angstroms)
 Number     Number       Type             X           Y           Z
 ---------------------------------------------------------------------
      1          6           0       -3.246357   -0.056676    0.191619
      2          6           0       -2.042021   -0.269114   -0.732145
      3          6           0       -0.281814    1.144538    0.463490
      4          6           0       -0.353858   -1.295953    0.899356
      5          6           0        0.606837   -0.098664    0.718166
      6          6           0       -1.244397   -1.519486   -0.326121
      7          6           0       -1.152193    0.982616   -0.784846
      8          8           0        0.467075    2.345820    0.358271
      9          6           0        1.720143   -0.370950   -0.353096
     10          6           0        2.509254   -1.653253   -0.042114
     11          6           0        2.727969    0.777645   -0.488480
     12          1           0       -3.907296   -0.929825    0.168393
     13          1           0       -2.950083    0.109625    1.231281
     14          1           0       -3.832813    0.809576   -0.132890
     15          1           0       -2.445550   -0.438493   -1.739033
     16          1           0       -0.939816    1.284880    1.329883
     17          1           0       -0.988965   -1.111826    1.775528
     18          1           0        0.191657   -2.214911    1.133858
     19          1           0        1.126849    0.061071    1.673235
     20          1           0       -1.927981   -2.354524   -0.130438
     21          1           0       -0.621395   -1.832745   -1.172417
     22          1           0       -1.765189    1.881999   -0.926714
     23          1           0       -0.510665    0.938398   -1.674088
     24          1           0        0.987372    2.438155    1.174570
     25          1           0        1.258311   -0.510245   -1.337216
     26          1           0        2.913277   -1.632407    0.975525
     27          1           0        1.886399   -2.545633   -0.151225
     28          1           0        3.348528   -1.777005   -0.735665
     29          1           0        3.104925    1.095025    0.489223
     30          1           0        2.286158    1.639536   -0.995037
     31          1           0        3.588301    0.478571   -1.097917
 ---------------------------------------------------------------------

 SCF Done:  E(RHF) =  -459.614256675     A.U. after   10 cycles

      1  C    Isotropic =   222.1933   Anisotropy =    26.2781

      2  C    Isotropic =   215.8389   Anisotropy =     6.5972

      3  C    Isotropic =   188.2322   Anisotropy =    42.0812

      4  C    Isotropic =   218.7871   Anisotropy =    16.9806

      5  C    Isotropic =   208.5067   Anisotropy =    12.0566

      6  C    Isotropic =   218.7630   Anisotropy =    14.5946

      7  C    Isotropic =   218.1451   Anisotropy =    16.6978

      8  O    Isotropic =   356.1888   Anisotropy =    89.4583

      9  C    Isotropic =   215.2915   Anisotropy =    13.5487

     10  C    Isotropic =   220.7523   Anisotropy =    26.4046

     11  C    Isotropic =   221.0367   Anisotropy =    25.7732

     12  H    Isotropic =    32.5905   Anisotropy =    14.4443

     13  H    Isotropic =    32.5334   Anisotropy =     8.5817

     14  H    Isotropic =    32.5132   Anisotropy =    14.2714

     15  H    Isotropic =    32.3107   Anisotropy =    14.8530

     16  H    Isotropic =    31.9563   Anisotropy =     9.0009

     17  H    Isotropic =    32.7303   Anisotropy =    12.1997

     18  H    Isotropic =    32.4470   Anisotropy =    12.7264

     19  H    Isotropic =    33.1117   Anisotropy =    11.3381

     20  H    Isotropic =    32.6456   Anisotropy =    14.6734

     21  H    Isotropic =    32.4957   Anisotropy =    11.0079

     22  H    Isotropic =    32.1166   Anisotropy =    14.0759

     23  H    Isotropic =    32.1404   Anisotropy =    10.4328

     24  H    Isotropic =    35.1040   Anisotropy =    17.0711

     25  H    Isotropic =    32.4678   Anisotropy =     8.1840

     26  H    Isotropic =    32.6831   Anisotropy =    11.7470

     27  H    Isotropic =    32.3993   Anisotropy =    10.5985

     28  H    Isotropic =    32.5596   Anisotropy =    14.1871

     29  H    Isotropic =    32.8784   Anisotropy =    11.0939

     30  H    Isotropic =    31.7646   Anisotropy =    10.0193

     31  H    Isotropic =    32.6020   Anisotropy =    14.3132

 The electronic state is 1-A.
 Alpha  occ. eigenvalues --  -20.23798 -11.08520 -11.04825 -11.04587 -11.04423
 Alpha  occ. eigenvalues --  -11.03787 -11.03724 -11.03612 -11.03107 -11.02942
 Alpha  occ. eigenvalues --  -11.02373  -1.27947  -1.08315  -1.03227  -0.96805
 Alpha  occ. eigenvalues --   -0.94693  -0.88421  -0.88333  -0.79847  -0.77939
 Alpha  occ. eigenvalues --   -0.74379  -0.67569  -0.62540  -0.61130  -0.59528
 Alpha  occ. eigenvalues --   -0.58089  -0.55553  -0.54540  -0.53744  -0.52515
 Alpha  occ. eigenvalues --   -0.50865  -0.50010  -0.49249  -0.48291  -0.46756
 Alpha  occ. eigenvalues --   -0.45311  -0.43351  -0.42960  -0.42109  -0.41605
 Alpha  occ. eigenvalues --   -0.39647  -0.38864  -0.36393  -0.32622
 Alpha virt. eigenvalues --    0.52132   0.55292   0.58131   0.60636   0.61157
 Alpha virt. eigenvalues --    0.61612   0.62150   0.63849   0.65107   0.66079
 Alpha virt. eigenvalues --    0.69524   0.69689   0.70595   0.71176   0.71946

 Mulliken atomic charges:
              1
     1  C   -0.174088
     2  C   -0.023726
     3  C    0.077866
     4  C   -0.103317
     5  C   -0.040783
     6  C   -0.102060
     7  C   -0.107746
     8  O   -0.312600
     9  C   -0.021802
    10  C   -0.173060
    11  C   -0.176234
    12  H    0.053447
    13  H    0.052092
    14  H    0.054581
    15  H    0.050772
    16  H    0.038920
    17  H    0.047152
    18  H    0.054189
    19  H    0.038929
    20  H    0.051264
    21  H    0.049269
    22  H    0.059173
    23  H    0.055703
    24  H    0.177494
    25  H    0.048293
    26  H    0.051262
    27  H    0.052852
    28  H    0.054560
    29  H    0.046384
    30  H    0.069601
    31  H    0.051613
 Sum of Mulliken atomic charges =   0.00000

 Dipole moment (field-independent basis, Debye):
    X=             -0.0747    Y=             -0.9711    Z=              0.8936  Tot=              1.3218
 Quadrupole moment (field-independent basis, Debye-Ang):
   XX=            -67.4012   YY=            -71.5310   ZZ=            -65.3473
   XY=              0.2436   XZ=              1.2094   YZ=              2.4423

 Summary of Natural Population Analysis:

                                       Natural Population
                Natural  -----------------------------------------------
    Atom  No    Charge         Core      Valence    Rydberg      Total
 -----------------------------------------------------------------------
      C    1   -0.12948      1.99997     4.12951    0.00000     6.12948
      C    2    0.01606      1.99997     3.98397    0.00000     5.98394
      C    3    0.14449      1.99989     3.85562    0.00000     5.85551
      C    4   -0.06532      1.99995     4.06537    0.00000     6.06532
      C    5   -0.01728      1.99995     4.01733    0.00000     6.01728
      C    6   -0.06457      1.99996     4.06461    0.00000     6.06457
      C    7   -0.08415      1.99995     4.08420    0.00000     6.08415
      O    8   -0.33354      1.99999     6.33354    0.00000     8.33354
      C    9    0.02051      1.99995     3.97954    0.00000     5.97949
      C   10   -0.12850      1.99997     4.12853    0.00000     6.12850
      C   11   -0.13284      1.99997     4.13287    0.00000     6.13284
      H   12    0.03622      0.00000     0.96378    0.00000     0.96378
      H   13    0.03471      0.00000     0.96529    0.00000     0.96529
      H   14    0.03722      0.00000     0.96278    0.00000     0.96278
      H   15    0.02611      0.00000     0.97389    0.00000     0.97389
      H   16    0.00329      0.00000     0.99671    0.00000     0.99671
      H   17    0.02618      0.00000     0.97382    0.00000     0.97382
      H   18    0.03243      0.00000     0.96757    0.00000     0.96757
      H   19    0.01367      0.00000     0.98633    0.00000     0.98633
      H   20    0.03050      0.00000     0.96950    0.00000     0.96950
      H   21    0.02816      0.00000     0.97184    0.00000     0.97184
      H   22    0.03805      0.00000     0.96195    0.00000     0.96195
      H   23    0.03458      0.00000     0.96542    0.00000     0.96542
      H   24    0.19016      0.00000     0.80984    0.00000     0.80984
      H   25    0.02224      0.00000     0.97776    0.00000     0.97776
      H   26    0.03389      0.00000     0.96611    0.00000     0.96611
      H   27    0.03513      0.00000     0.96487    0.00000     0.96487
      H   28    0.03719      0.00000     0.96281    0.00000     0.96281
      H   29    0.02990      0.00000     0.97010    0.00000     0.97010
      H   30    0.05034      0.00000     0.94966    0.00000     0.94966
      H   31    0.03466      0.00000     0.96534    0.00000     0.96534
 =======================================================================
   * Total *    0.00000     21.99952    66.00048    0.00000    88.00000

 Normal termination of Gaussian 09 at Tue Aug  3 16:37:48 2021.
