 Gaussian 09, Revision C.01,
 Gaussian 09:  EM64L-G09RevC.01 23-Sep-2011

 ------------------------
 # rhf/STO-3G nmr pop=nbo
 ------------------------

 99/9=1/99;
 -------
 comment
 -------
 Charge =  0 Multiplicity = 1

                         Standard orientation:
 ---------------------------------------------------------------------
 Center     Atomic      Atomic             Coordinates (Angstroms)
 Number     Number       Type             X           Y           Z
 ---------------------------------------------------------------------
      1          6           0        3.117620   -0.447393   -0.460745
      2          6           0        2.042944   -0.409448    0.629301
      3          6           0        0.379556    1.173139   -0.497206
      4          6           0        0.077328   -1.348529   -0.712063
      5          6           0       -0.623489    0.024118   -0.765631
      6          6           0        1.027824   -1.543982    0.468455
      7          6           0        1.330416    0.943167    0.678814
      8          8           0       -0.306849    2.408783   -0.319008
      9          6           0       -1.985406    0.119977   -0.004365
     10          6           0       -1.925446   -0.070135    1.508666
     11          6           0       -3.028205   -0.846993   -0.587037
     12          1           0        2.702190   -0.312365   -1.463480
     13          1           0        3.858580    0.342457   -0.297083
     14          1           0        3.646977   -1.406136   -0.444859
     15          1           0        2.559849   -0.553283    1.587234
     16          1           0        0.987226    1.292840   -1.403249
     17          1           0        0.657797   -1.465235   -1.636903
     18          1           0       -0.648642   -2.167013   -0.726677
     19          1           0       -0.918399    0.160229   -1.818568
     20          1           0        1.553566   -2.499680    0.350779
     21          1           0        0.452032   -1.634556    1.394646
     22          1           0        2.068386    1.755627    0.711566
     23          1           0        0.786451    1.033168    1.624615
     24          1           0        0.362448    3.104662   -0.203891
     25          1           0       -2.388347    1.125890   -0.182277
     26          1           0       -1.605526   -1.078568    1.781740
     27          1           0       -1.265053    0.656455    1.983807
     28          1           0       -2.919299    0.077982    1.947385
     29          1           0       -2.799548   -1.890218   -0.349370
     30          1           0       -3.093812   -0.746729   -1.675356
     31          1           0       -4.020938   -0.629304   -0.177121
 ---------------------------------------------------------------------

 SCF Done:  E(RHF) =  -459.609543192     A.U. after   10 cycles

      1  C    Isotropic =   222.9260   Anisotropy =    25.1358

      2  C    Isotropic =   216.6712   Anisotropy =     5.4572

      3  C    Isotropic =   190.4098   Anisotropy =    40.6872

      4  C    Isotropic =   221.3704   Anisotropy =    15.4366

      5  C    Isotropic =   211.7071   Anisotropy =    16.7085

      6  C    Isotropic =   218.5234   Anisotropy =    11.5444

      7  C    Isotropic =   216.4869   Anisotropy =    15.0566

      8  O    Isotropic =   357.9423   Anisotropy =    94.4051

      9  C    Isotropic =   214.9833   Anisotropy =    14.8226

     10  C    Isotropic =   223.0711   Anisotropy =    19.4180

     11  C    Isotropic =   220.5735   Anisotropy =    28.2789

     12  H    Isotropic =    32.6104   Anisotropy =     8.4981

     13  H    Isotropic =    32.6900   Anisotropy =    14.2184

     14  H    Isotropic =    32.6311   Anisotropy =    14.4028

     15  H    Isotropic =    32.4391   Anisotropy =    14.7625

     16  H    Isotropic =    31.8987   Anisotropy =     9.6920

     17  H    Isotropic =    32.6268   Anisotropy =    12.8869

     18  H    Isotropic =    32.4390   Anisotropy =    12.7098

     19  H    Isotropic =    32.0534   Anisotropy =    12.2773

     20  H    Isotropic =    32.6529   Anisotropy =    14.6698

     21  H    Isotropic =    32.6206   Anisotropy =    11.4687

     22  H    Isotropic =    32.9777   Anisotropy =    13.4103

     23  H    Isotropic =    32.3664   Anisotropy =    10.5921

     24  H    Isotropic =    35.0633   Anisotropy =    19.5866

     25  H    Isotropic =    31.7420   Anisotropy =    11.6840

     26  H    Isotropic =    32.8207   Anisotropy =     8.7274

     27  H    Isotropic =    32.4583   Anisotropy =     9.4689

     28  H    Isotropic =    32.5094   Anisotropy =    14.9642

     29  H    Isotropic =    32.5256   Anisotropy =     9.9970

     30  H    Isotropic =    32.5234   Anisotropy =    13.0302

     31  H    Isotropic =    32.3627   Anisotropy =    14.6429

 The electronic state is 1-A.
 Alpha  occ. eigenvalues --  -20.23751 -11.08529 -11.04860 -11.04215 -11.03958
 Alpha  occ. eigenvalues --  -11.03666 -11.03641 -11.03536 -11.03292 -11.02509
 Alpha  occ. eigenvalues --  -11.02362  -1.27812  -1.08090  -1.03200  -0.96567
 Alpha  occ. eigenvalues --   -0.94680  -0.89211  -0.88042  -0.80436  -0.78236
 Alpha  occ. eigenvalues --   -0.72824  -0.66944  -0.62036  -0.61819  -0.60473
 Alpha  occ. eigenvalues --   -0.57174  -0.55865  -0.54864  -0.53627  -0.52010
 Alpha  occ. eigenvalues --   -0.50545  -0.50102  -0.49084  -0.48459  -0.46229
 Alpha  occ. eigenvalues --   -0.46148  -0.43985  -0.42509  -0.41922  -0.41037
 Alpha  occ. eigenvalues --   -0.38971  -0.38159  -0.36228  -0.33045
 Alpha virt. eigenvalues --    0.52765   0.56287   0.56749   0.59598   0.61249
 Alpha virt. eigenvalues --    0.61417   0.62395   0.63208   0.64215   0.67737
 Alpha virt. eigenvalues --    0.68406   0.69806   0.70443   0.71429   0.71880

 Mulliken atomic charges:
              1
     1  C   -0.175177
     2  C   -0.023204
     3  C    0.077168
     4  C   -0.104747
     5  C   -0.033691
     6  C   -0.102120
     7  C   -0.116893
     8  O   -0.313552
     9  C   -0.019707
    10  C   -0.176683
    11  C   -0.172682
    12  H    0.053139
    13  H    0.052824
    14  H    0.054544
    15  H    0.049852
    16  H    0.038537
    17  H    0.048105
    18  H    0.055938
    19  H    0.049908
    20  H    0.050000
    21  H    0.051155
    22  H    0.043563
    23  H    0.055895
    24  H    0.177696
    25  H    0.063300
    26  H    0.050717
    27  H    0.056842
    28  H    0.053152
    29  H    0.050402
    30  H    0.052017
    31  H    0.053700
 Sum of Mulliken atomic charges =   0.00000

 Dipole moment (field-independent basis, Debye):
    X=              1.2981    Y=             -0.2039    Z=              0.0304  Tot=              1.3144
 Quadrupole moment (field-independent basis, Debye-Ang):
   XX=            -67.8592   YY=            -66.8096   ZZ=            -67.6483
   XY=              3.4097   XZ=             -0.3285   YZ=              0.3221

 Summary of Natural Population Analysis:

                                       Natural Population
                Natural  -----------------------------------------------
    Atom  No    Charge         Core      Valence    Rydberg      Total
 -----------------------------------------------------------------------
      C    1   -0.13026      1.99997     4.13029    0.00000     6.13026
      C    2    0.01576      1.99997     3.98427    0.00000     5.98424
      C    3    0.14514      1.99988     3.85498    0.00000     5.85486
      C    4   -0.06755      1.99995     4.06759    0.00000     6.06755
      C    5   -0.01072      1.99994     4.01078    0.00000     6.01072
      C    6   -0.06536      1.99996     4.06540    0.00000     6.06536
      C    7   -0.09415      1.99996     4.09419    0.00000     6.09415
      O    8   -0.33459      1.99999     6.33460    0.00000     8.33459
      C    9    0.02039      1.99995     3.97966    0.00000     5.97961
      C   10   -0.13334      1.99997     4.13338    0.00000     6.13334
      C   11   -0.12769      1.99997     4.12773    0.00000     6.12769
      H   12    0.03577      0.00000     0.96423    0.00000     0.96423
      H   13    0.03574      0.00000     0.96426    0.00000     0.96426
      H   14    0.03736      0.00000     0.96264    0.00000     0.96264
      H   15    0.02573      0.00000     0.97427    0.00000     0.97427
      H   16    0.00275      0.00000     0.99725    0.00000     0.99725
      H   17    0.02737      0.00000     0.97263    0.00000     0.97263
      H   18    0.03464      0.00000     0.96536    0.00000     0.96536
      H   19    0.02414      0.00000     0.97586    0.00000     0.97586
      H   20    0.02972      0.00000     0.97028    0.00000     0.97028
      H   21    0.02986      0.00000     0.97014    0.00000     0.97014
      H   22    0.02431      0.00000     0.97569    0.00000     0.97569
      H   23    0.03490      0.00000     0.96510    0.00000     0.96510
      H   24    0.19029      0.00000     0.80971    0.00000     0.80971
      H   25    0.03648      0.00000     0.96352    0.00000     0.96352
      H   26    0.03372      0.00000     0.96628    0.00000     0.96628
      H   27    0.03909      0.00000     0.96091    0.00000     0.96091
      H   28    0.03668      0.00000     0.96332    0.00000     0.96332
      H   29    0.03287      0.00000     0.96713    0.00000     0.96713
      H   30    0.03455      0.00000     0.96545    0.00000     0.96545
      H   31    0.03643      0.00000     0.96357    0.00000     0.96357
 =======================================================================
   * Total *    0.00000     21.99952    66.00048    0.00000    88.00000

 Normal termination of Gaussian 09 at Tue Aug  3 16:37:56 2021.
