 Gaussian 09, Revision C.01,
 Gaussian 09:  EM64L-G09RevC.01 23-Sep-2011

 ------------------------
 # rhf/STO-3G nmr pop=nbo
 ------------------------

 99/9=1/99;
 -------
 comment
 -------
 Charge =  0 Multiplicity = 1

                         Standard orientation:
 ---------------------------------------------------------------------
 Center     Atomic      Atomic             Coordinates (Angstroms)
 Number     Number       Type             X           Y           Z
 ---------------------------------------------------------------------
      1          6           0        3.133421   -0.371053   -0.489029
      2          6           0        2.064260   -0.403733    0.606658
      3          6           0        0.373889    1.208223   -0.428928
      4          6           0        0.100198   -1.301654   -0.768549
      5          6           0       -0.619090    0.062327   -0.745688
      6          6           0        1.065072   -1.543856    0.392389
      7          6           0        1.332811    0.934359    0.728667
      8          8           0       -0.302439    2.435517   -0.174222
      9          6           0       -1.971271    0.097778    0.037911
     10          6           0       -1.897437   -0.243963    1.523509
     11          6           0       -3.026418   -0.802166   -0.625586
     12          1           0        2.710146   -0.195776   -1.482213
     13          1           0        3.861983    0.422510   -0.291299
     14          1           0        3.678817   -1.320355   -0.521542
     15          1           0        2.588497   -0.588567    1.553509
     16          1           0        0.982431    1.379301   -1.326134
     17          1           0        0.672894   -1.363917   -1.703403
     18          1           0       -0.616623   -2.127152   -0.816700
     19          1           0       -0.926716    0.250180   -1.786747
     20          1           0        1.604081   -2.483717    0.219890
     21          1           0        0.499770   -1.692437    1.317564
     22          1           0        2.058211    1.755896    0.797981
     23          1           0        0.792986    0.969633    1.680501
     24          1           0       -0.837468    2.641918   -0.959635
     25          1           0       -2.369843    1.117871   -0.034756
     26          1           0       -1.605599   -1.284263    1.688793
     27          1           0       -1.208591    0.410280    2.058935
     28          1           0       -2.880901   -0.112334    1.990005
     29          1           0       -2.790827   -1.864527   -0.512072
     30          1           0       -3.116144   -0.581356   -1.694267
     31          1           0       -4.010210   -0.634900   -0.172754
 ---------------------------------------------------------------------

 SCF Done:  E(RHF) =  -459.610237588     A.U. after   10 cycles

      1  C    Isotropic =   222.8274   Anisotropy =    25.2472

      2  C    Isotropic =   216.5937   Anisotropy =     5.3975

      3  C    Isotropic =   189.8759   Anisotropy =    40.7119

      4  C    Isotropic =   221.3420   Anisotropy =    15.5499

      5  C    Isotropic =   210.9377   Anisotropy =    15.7643

      6  C    Isotropic =   218.5873   Anisotropy =    11.5460

      7  C    Isotropic =   218.3721   Anisotropy =    13.9841

      8  O    Isotropic =   360.2843   Anisotropy =    84.6597

      9  C    Isotropic =   214.9360   Anisotropy =    14.3297

     10  C    Isotropic =   223.1582   Anisotropy =    19.6518

     11  C    Isotropic =   220.5181   Anisotropy =    28.4930

     12  H    Isotropic =    32.6031   Anisotropy =     8.3782

     13  H    Isotropic =    32.5442   Anisotropy =    14.3663

     14  H    Isotropic =    32.6157   Anisotropy =    14.4437

     15  H    Isotropic =    32.3510   Anisotropy =    14.9695

     16  H    Isotropic =    31.8923   Anisotropy =     9.6898

     17  H    Isotropic =    32.6685   Anisotropy =    12.8526

     18  H    Isotropic =    32.5197   Anisotropy =    12.4952

     19  H    Isotropic =    32.8110   Anisotropy =    11.8749

     20  H    Isotropic =    32.6534   Anisotropy =    14.6730

     21  H    Isotropic =    32.6127   Anisotropy =    11.4067

     22  H    Isotropic =    32.1251   Anisotropy =    14.2456

     23  H    Isotropic =    32.2444   Anisotropy =    11.0318

     24  H    Isotropic =    34.9349   Anisotropy =    18.1470

     25  H    Isotropic =    32.3191   Anisotropy =    11.3174

     26  H    Isotropic =    32.7954   Anisotropy =     8.9645

     27  H    Isotropic =    32.4080   Anisotropy =     9.5344

     28  H    Isotropic =    32.5276   Anisotropy =    15.0033

     29  H    Isotropic =    32.5270   Anisotropy =     9.9943

     30  H    Isotropic =    32.7142   Anisotropy =    12.9624

     31  H    Isotropic =    32.4278   Anisotropy =    14.5180

 The electronic state is 1-A.
 Alpha  occ. eigenvalues --  -20.23972 -11.08500 -11.04712 -11.04639 -11.04279
 Alpha  occ. eigenvalues --  -11.03823 -11.03517 -11.03453 -11.03102 -11.03055
 Alpha  occ. eigenvalues --  -11.02720  -1.27923  -1.08136  -1.03519  -0.96683
 Alpha  occ. eigenvalues --   -0.94691  -0.89330  -0.88261  -0.80554  -0.78178
 Alpha  occ. eigenvalues --   -0.73186  -0.67085  -0.62228  -0.61610  -0.60597
 Alpha  occ. eigenvalues --   -0.57544  -0.55811  -0.54439  -0.53671  -0.52263
 Alpha  occ. eigenvalues --   -0.50966  -0.50566  -0.49703  -0.48268  -0.46463
 Alpha  occ. eigenvalues --   -0.46177  -0.42778  -0.42528  -0.42232  -0.41654
 Alpha  occ. eigenvalues --   -0.39368  -0.38526  -0.36378  -0.33167
 Alpha virt. eigenvalues --    0.52210   0.56408   0.58078   0.59139   0.60183
 Alpha virt. eigenvalues --    0.61329   0.62062   0.63113   0.65145   0.66353
 Alpha virt. eigenvalues --    0.68384   0.70262   0.70752   0.71033   0.71667

 Mulliken atomic charges:
              1
     1  C   -0.174784
     2  C   -0.023352
     3  C    0.076827
     4  C   -0.104142
     5  C   -0.043347
     6  C   -0.102299
     7  C   -0.108124
     8  O   -0.310574
     9  C   -0.020338
    10  C   -0.176698
    11  C   -0.172812
    12  H    0.052127
    13  H    0.054541
    14  H    0.053716
    15  H    0.050946
    16  H    0.038912
    17  H    0.048055
    18  H    0.054349
    19  H    0.039328
    20  H    0.049937
    21  H    0.051335
    22  H    0.057190
    23  H    0.057454
    24  H    0.176068
    25  H    0.051985
    26  H    0.052517
    27  H    0.059723
    28  H    0.053785
    29  H    0.052625
    30  H    0.050605
    31  H    0.054448
 Sum of Mulliken atomic charges =   0.00000

 Dipole moment (field-independent basis, Debye):
    X=             -0.1155    Y=             -0.8183    Z=             -1.0633  Tot=              1.3467
 Quadrupole moment (field-independent basis, Debye-Ang):
   XX=            -66.9241   YY=            -70.6424   ZZ=            -66.2989
   XY=             -0.9157   XZ=              0.9925   YZ=             -3.0051

 Summary of Natural Population Analysis:

                                       Natural Population
                Natural  -----------------------------------------------
    Atom  No    Charge         Core      Valence    Rydberg      Total
 -----------------------------------------------------------------------
      C    1   -0.12992      1.99997     4.12995    0.00000     6.12992
      C    2    0.01549      1.99997     3.98454    0.00000     5.98451
      C    3    0.14451      1.99989     3.85560    0.00000     5.85549
      C    4   -0.06636      1.99995     4.06641    0.00000     6.06636
      C    5   -0.02113      1.99995     4.02119    0.00000     6.02113
      C    6   -0.06558      1.99996     4.06562    0.00000     6.06558
      C    7   -0.08553      1.99995     4.08558    0.00000     6.08553
      O    8   -0.33130      1.99999     6.33131    0.00000     8.33130
      C    9    0.02076      1.99996     3.97929    0.00000     5.97924
      C   10   -0.13366      1.99997     4.13370    0.00000     6.13366
      C   11   -0.12789      1.99997     4.12792    0.00000     6.12789
      H   12    0.03485      0.00000     0.96515    0.00000     0.96515
      H   13    0.03729      0.00000     0.96271    0.00000     0.96271
      H   14    0.03657      0.00000     0.96343    0.00000     0.96343
      H   15    0.02681      0.00000     0.97319    0.00000     0.97319
      H   16    0.00331      0.00000     0.99669    0.00000     0.99669
      H   17    0.02732      0.00000     0.97268    0.00000     0.97268
      H   18    0.03306      0.00000     0.96694    0.00000     0.96694
      H   19    0.01462      0.00000     0.98538    0.00000     0.98538
      H   20    0.02964      0.00000     0.97036    0.00000     0.97036
      H   21    0.02998      0.00000     0.97002    0.00000     0.97002
      H   22    0.03658      0.00000     0.96342    0.00000     0.96342
      H   23    0.03625      0.00000     0.96375    0.00000     0.96375
      H   24    0.18861      0.00000     0.81139    0.00000     0.81139
      H   25    0.02617      0.00000     0.97383    0.00000     0.97383
      H   26    0.03549      0.00000     0.96451    0.00000     0.96451
      H   27    0.04164      0.00000     0.95836    0.00000     0.95836
      H   28    0.03725      0.00000     0.96275    0.00000     0.96275
      H   29    0.03490      0.00000     0.96510    0.00000     0.96510
      H   30    0.03322      0.00000     0.96678    0.00000     0.96678
      H   31    0.03705      0.00000     0.96295    0.00000     0.96295
 =======================================================================
   * Total *    0.00000     21.99952    66.00048    0.00000    88.00000

 Normal termination of Gaussian 09 at Tue Aug  3 16:37:33 2021.
