 Gaussian 09, Revision C.01,
 Gaussian 09:  EM64L-G09RevC.01 23-Sep-2011

 ------------------------
 # rhf/STO-3G nmr pop=nbo
 ------------------------

 99/9=1/99;
 -------
 comment
 -------
 Charge =  0 Multiplicity = 1

                         Standard orientation:
 ---------------------------------------------------------------------
 Center     Atomic      Atomic             Coordinates (Angstroms)
 Number     Number       Type             X           Y           Z
 ---------------------------------------------------------------------
      1          6           0       -3.234522   -0.112875    0.186450
      2          6           0       -2.024083   -0.291902   -0.736459
      3          6           0       -0.288956    1.125455    0.492302
      4          6           0       -0.327850   -1.323753    0.883251
      5          6           0        0.615689   -0.109425    0.727486
      6          6           0       -1.210380   -1.537903   -0.349594
      7          6           0       -1.152331    0.973345   -0.763550
      8          8           0        0.463055    2.328016    0.429883
      9          6           0        1.737240   -0.346954   -0.343802
     10          6           0        2.546818   -1.620187   -0.048493
     11          6           0        2.725769    0.820549   -0.459159
     12          1           0       -3.882517   -0.995051    0.146059
     13          1           0       -2.944140    0.040113    1.229814
     14          1           0       -3.832544    0.750115   -0.125406
     15          1           0       -2.421596   -0.449099   -1.747705
     16          1           0       -0.945794    1.236378    1.363839
     17          1           0       -0.968847   -1.165012    1.760096
     18          1           0        0.230223   -2.238756    1.103145
     19          1           0        1.130068    0.041548    1.687101
     20          1           0       -1.882779   -2.385882   -0.171590
     21          1           0       -0.579839   -1.827230   -1.198812
     22          1           0       -1.779257    1.864828   -0.893167
     23          1           0       -0.505929    0.954524   -1.650063
     24          1           0       -0.161655    3.061985    0.301893
     25          1           0        1.281152   -0.479701   -1.331507
     26          1           0        2.947370   -1.607086    0.970643
     27          1           0        1.939421   -2.521250   -0.172279
     28          1           0        3.390132   -1.719970   -0.741003
     29          1           0        3.090117    1.133710    0.524679
     30          1           0        2.272113    1.679971   -0.959665
     31          1           0        3.595500    0.543641   -1.065723
 ---------------------------------------------------------------------

 SCF Done:  E(RHF) =  -459.613327918     A.U. after   10 cycles

      1  C    Isotropic =   222.2772   Anisotropy =    26.1728

      2  C    Isotropic =   215.9261   Anisotropy =     6.6120

      3  C    Isotropic =   188.5556   Anisotropy =    42.5642

      4  C    Isotropic =   218.7536   Anisotropy =    16.7240

      5  C    Isotropic =   209.5076   Anisotropy =    14.7981

      6  C    Isotropic =   218.8034   Anisotropy =    14.7260

      7  C    Isotropic =   216.4060   Anisotropy =    17.2333

      8  O    Isotropic =   357.3119   Anisotropy =    98.2975

      9  C    Isotropic =   215.0897   Anisotropy =    13.6855

     10  C    Isotropic =   220.6886   Anisotropy =    26.6378

     11  C    Isotropic =   220.6053   Anisotropy =    26.0064

     12  H    Isotropic =    32.6046   Anisotropy =    14.3917

     13  H    Isotropic =    32.5687   Anisotropy =     8.6938

     14  H    Isotropic =    32.6800   Anisotropy =    14.0990

     15  H    Isotropic =    32.3878   Anisotropy =    14.6718

     16  H    Isotropic =    31.9720   Anisotropy =     8.8974

     17  H    Isotropic =    32.6702   Anisotropy =    12.2515

     18  H    Isotropic =    32.3668   Anisotropy =    12.9561

     19  H    Isotropic =    32.2478   Anisotropy =    11.7840

     20  H    Isotropic =    32.6471   Anisotropy =    14.6670

     21  H    Isotropic =    32.4809   Anisotropy =    11.0592

     22  H    Isotropic =    33.0113   Anisotropy =    13.2311

     23  H    Isotropic =    32.2081   Anisotropy =    10.0425

     24  H    Isotropic =    35.1672   Anisotropy =    19.4800

     25  H    Isotropic =    32.5381   Anisotropy =     7.7429

     26  H    Isotropic =    32.5494   Anisotropy =    11.9415

     27  H    Isotropic =    32.3975   Anisotropy =    10.5854

     28  H    Isotropic =    32.5223   Anisotropy =    14.2066

     29  H    Isotropic =    32.3533   Anisotropy =    11.2993

     30  H    Isotropic =    31.7924   Anisotropy =    10.1656

     31  H    Isotropic =    32.6171   Anisotropy =    14.2976

 The electronic state is 1-A.
 Alpha  occ. eigenvalues --  -20.23681 -11.08562 -11.04978 -11.04385 -11.04134
 Alpha  occ. eigenvalues --  -11.03790 -11.03739 -11.03658 -11.03337 -11.02564
 Alpha  occ. eigenvalues --  -11.01611  -1.27903  -1.08284  -1.02959  -0.96651
 Alpha  occ. eigenvalues --   -0.94706  -0.88487  -0.87769  -0.79698  -0.78135
 Alpha  occ. eigenvalues --   -0.74000  -0.67408  -0.62195  -0.61807  -0.59407
 Alpha  occ. eigenvalues --   -0.57224  -0.55952  -0.55125  -0.53331  -0.51895
 Alpha  occ. eigenvalues --   -0.50313  -0.49863  -0.48969  -0.48275  -0.46694
 Alpha  occ. eigenvalues --   -0.45492  -0.43944  -0.43062  -0.41856  -0.40889
 Alpha  occ. eigenvalues --   -0.38992  -0.38382  -0.36160  -0.33027
 Alpha virt. eigenvalues --    0.52966   0.55225   0.56549   0.60805   0.61271
 Alpha virt. eigenvalues --    0.61863   0.62557   0.63884   0.65286   0.67056
 Alpha virt. eigenvalues --    0.68904   0.69747   0.69933   0.72032   0.72185

 Mulliken atomic charges:
              1
     1  C   -0.174561
     2  C   -0.023698
     3  C    0.078457
     4  C   -0.103495
     5  C   -0.031357
     6  C   -0.102084
     7  C   -0.116249
     8  O   -0.313611
     9  C   -0.020335
    10  C   -0.172969
    11  C   -0.172367
    12  H    0.054431
    13  H    0.052687
    14  H    0.052619
    15  H    0.049802
    16  H    0.038638
    17  H    0.047665
    18  H    0.055442
    19  H    0.052083
    20  H    0.051253
    21  H    0.049666
    22  H    0.044769
    23  H    0.054927
    24  H    0.176910
    25  H    0.044718
    26  H    0.052286
    27  H    0.051250
    28  H    0.053946
    29  H    0.055317
    30  H    0.065953
    31  H    0.047906
 Sum of Mulliken atomic charges =   0.00000

 Dipole moment (field-independent basis, Debye):
    X=             -1.4197    Y=             -0.2019    Z=             -0.2072  Tot=              1.4489
 Quadrupole moment (field-independent basis, Debye-Ang):
   XX=            -68.7983   YY=            -66.7730   ZZ=            -67.2679
   XY=             -3.5092   XZ=             -0.4729   YZ=             -0.5583

 Summary of Natural Population Analysis:

                                       Natural Population
                Natural  -----------------------------------------------
    Atom  No    Charge         Core      Valence    Rydberg      Total
 -----------------------------------------------------------------------
      C    1   -0.12986      1.99997     4.12989    0.00000     6.12986
      C    2    0.01624      1.99997     3.98379    0.00000     5.98376
      C    3    0.14516      1.99989     3.85495    0.00000     5.85484
      C    4   -0.06594      1.99995     4.06598    0.00000     6.06594
      C    5   -0.00725      1.99995     4.00731    0.00000     6.00725
      C    6   -0.06461      1.99996     4.06465    0.00000     6.06461
      C    7   -0.09269      1.99996     4.09273    0.00000     6.09269
      O    8   -0.33464      1.99999     6.33465    0.00000     8.33464
      C    9    0.02204      1.99995     3.97800    0.00000     5.97796
      C   10   -0.12835      1.99997     4.12838    0.00000     6.12835
      C   11   -0.12933      1.99997     4.12937    0.00000     6.12933
      H   12    0.03715      0.00000     0.96285    0.00000     0.96285
      H   13    0.03525      0.00000     0.96475    0.00000     0.96475
      H   14    0.03543      0.00000     0.96457    0.00000     0.96457
      H   15    0.02513      0.00000     0.97487    0.00000     0.97487
      H   16    0.00291      0.00000     0.99709    0.00000     0.99709
      H   17    0.02664      0.00000     0.97336    0.00000     0.97336
      H   18    0.03371      0.00000     0.96629    0.00000     0.96629
      H   19    0.02541      0.00000     0.97459    0.00000     0.97459
      H   20    0.03049      0.00000     0.96951    0.00000     0.96951
      H   21    0.02853      0.00000     0.97147    0.00000     0.97147
      H   22    0.02510      0.00000     0.97490    0.00000     0.97490
      H   23    0.03399      0.00000     0.96601    0.00000     0.96601
      H   24    0.18963      0.00000     0.81037    0.00000     0.81037
      H   25    0.01880      0.00000     0.98120    0.00000     0.98120
      H   26    0.03483      0.00000     0.96517    0.00000     0.96517
      H   27    0.03365      0.00000     0.96635    0.00000     0.96635
      H   28    0.03664      0.00000     0.96336    0.00000     0.96336
      H   29    0.03786      0.00000     0.96214    0.00000     0.96214
      H   30    0.04704      0.00000     0.95296    0.00000     0.95296
      H   31    0.03102      0.00000     0.96898    0.00000     0.96898
 =======================================================================
   * Total *    0.00000     21.99952    66.00048    0.00000    88.00000

 Normal termination of Gaussian 09 at Tue Aug  3 16:37:09 2021.
