 Gaussian 09, Revision C.01,
 Gaussian 09:  EM64L-G09RevC.01 23-Sep-2011

 ------------------------
 # rhf/STO-3G nmr pop=nbo
 ------------------------

 99/9=1/99;
 -------
 comment
 -------
 Charge =  0 Multiplicity = 1

                         Standard orientation:
 ---------------------------------------------------------------------
 Center     Atomic      Atomic             Coordinates (Angstroms)
 Number     Number       Type             X           Y           Z
 ---------------------------------------------------------------------
      1          6           0        3.523704   -0.105963   -0.024317
      2          6           0        2.129492   -0.352200    0.554184
      3          6           0        0.310113    0.976976   -0.634282
      4          6           0       -0.066515   -1.477980   -0.010169
      5          6           0       -0.690460   -0.210234   -0.637532
      6          6           0        1.447974   -1.514614   -0.187460
      7          6           0        1.283814    0.933233    0.543339
      8          8           0       -0.340108    2.238956   -0.708379
      9          6           0       -2.121617    0.100910   -0.104848
     10          6           0       -2.194157    0.437511    1.387273
     11          6           0       -3.088814   -1.052486   -0.405625
     12          1           0        4.053078    0.660844    0.551127
     13          1           0        4.124494   -1.021065    0.007607
     14          1           0        3.469417    0.229692   -1.065435
     15          1           0        2.263532   -0.645827    1.603990
     16          1           0        0.906562    0.908903   -1.553473
     17          1           0       -0.505324   -2.369167   -0.474428
     18          1           0       -0.289129   -1.541484    1.059991
     19          1           0       -0.833725   -0.438843   -1.705442
     20          1           0        1.684366   -1.483981   -1.258926
     21          1           0        1.842608   -2.466032    0.189165
     22          1           0        1.918538    1.828170    0.543675
     23          1           0        0.717128    0.993586    1.480640
     24          1           0       -0.618151    2.495534    0.185878
     25          1           0       -2.501190    0.971231   -0.656086
     26          1           0       -1.906015   -0.410381    2.015410
     27          1           0       -1.558740    1.286003    1.648423
     28          1           0       -3.219231    0.710173    1.663440
     29          1           0       -2.839266   -1.951795    0.166664
     30          1           0       -3.073675   -1.308001   -1.470294
     31          1           0       -4.115609   -0.770131   -0.148261
 ---------------------------------------------------------------------

 SCF Done:  E(RHF) =  -459.608934218     A.U. after   10 cycles

      1  C    Isotropic =   220.7875   Anisotropy =    27.4134

      2  C    Isotropic =   216.1303   Anisotropy =    10.0795

      3  C    Isotropic =   189.7456   Anisotropy =    43.2430

      4  C    Isotropic =   219.7441   Anisotropy =    13.1352

      5  C    Isotropic =   210.5037   Anisotropy =    16.9594

      6  C    Isotropic =   217.1208   Anisotropy =    16.9990

      7  C    Isotropic =   215.2320   Anisotropy =    21.2149

      8  O    Isotropic =   360.8829   Anisotropy =    74.8826

      9  C    Isotropic =   215.1411   Anisotropy =    13.0998

     10  C    Isotropic =   223.9889   Anisotropy =    20.6348

     11  C    Isotropic =   220.8841   Anisotropy =    27.2815

     12  H    Isotropic =    32.4903   Anisotropy =    13.9832

     13  H    Isotropic =    32.4475   Anisotropy =    14.0689

     14  H    Isotropic =    32.5260   Anisotropy =    10.4940

     15  H    Isotropic =    32.4546   Anisotropy =    12.8469

     16  H    Isotropic =    31.3794   Anisotropy =     9.8905

     17  H    Isotropic =    32.4666   Anisotropy =    13.6009

     18  H    Isotropic =    32.8583   Anisotropy =     9.1342

     19  H    Isotropic =    32.0293   Anisotropy =    11.7771

     20  H    Isotropic =    32.8462   Anisotropy =    10.9535

     21  H    Isotropic =    32.3943   Anisotropy =    14.5263

     22  H    Isotropic =    32.4592   Anisotropy =    12.6420

     23  H    Isotropic =    32.9411   Anisotropy =     9.6998

     24  H    Isotropic =    35.1048   Anisotropy =    13.6836

     25  H    Isotropic =    31.9904   Anisotropy =    11.5655

     26  H    Isotropic =    32.7513   Anisotropy =     9.4316

     27  H    Isotropic =    33.3412   Anisotropy =     9.9507

     28  H    Isotropic =    32.6176   Anisotropy =    14.6911

     29  H    Isotropic =    32.5871   Anisotropy =     9.7333

     30  H    Isotropic =    32.4593   Anisotropy =    13.1638

     31  H    Isotropic =    32.4537   Anisotropy =    14.5868

 The electronic state is 1-A.
 Alpha  occ. eigenvalues --  -20.23966 -11.08439 -11.04848 -11.04750 -11.03868
 Alpha  occ. eigenvalues --  -11.03818 -11.03733 -11.03650 -11.03543 -11.03236
 Alpha  occ. eigenvalues --  -11.03063  -1.27971  -1.08278  -1.03791  -0.97003
 Alpha  occ. eigenvalues --   -0.94643  -0.89357  -0.88011  -0.80600  -0.78923
 Alpha  occ. eigenvalues --   -0.72898  -0.68185  -0.63090  -0.61833  -0.60257
 Alpha  occ. eigenvalues --   -0.56411  -0.55236  -0.54207  -0.53755  -0.52443
 Alpha  occ. eigenvalues --   -0.51283  -0.51114  -0.50139  -0.48325  -0.46837
 Alpha  occ. eigenvalues --   -0.45695  -0.44897  -0.43089  -0.42206  -0.41378
 Alpha  occ. eigenvalues --   -0.40127  -0.38439  -0.36097  -0.32675
 Alpha virt. eigenvalues --    0.53041   0.54786   0.57458   0.59060   0.60317
 Alpha virt. eigenvalues --    0.60705   0.62085   0.63194   0.66022   0.66483
 Alpha virt. eigenvalues --    0.67336   0.68030   0.70594   0.71264   0.71877

 Mulliken atomic charges:
              1
     1  C   -0.170982
     2  C   -0.023594
     3  C    0.075932
     4  C   -0.104082
     5  C   -0.041273
     6  C   -0.100513
     7  C   -0.118430
     8  O   -0.312125
     9  C   -0.022749
    10  C   -0.176136
    11  C   -0.172425
    12  H    0.053446
    13  H    0.053944
    14  H    0.053167
    15  H    0.048071
    16  H    0.055479
    17  H    0.052047
    18  H    0.047433
    19  H    0.047078
    20  H    0.048373
    21  H    0.051717
    22  H    0.056728
    23  H    0.044358
    24  H    0.179463
    25  H    0.058249
    26  H    0.054919
    27  H    0.044077
    28  H    0.056475
    29  H    0.053277
    30  H    0.054048
    31  H    0.054030
 Sum of Mulliken atomic charges =   0.00000

 Dipole moment (field-independent basis, Debye):
    X=              0.1489    Y=             -0.8573    Z=              1.1939  Tot=              1.4773
 Quadrupole moment (field-independent basis, Debye-Ang):
   XX=            -67.5563   YY=            -70.1324   ZZ=            -67.9926
   XY=             -0.1651   XZ=             -0.7502   YZ=              3.5604

 Summary of Natural Population Analysis:

                                       Natural Population
                Natural  -----------------------------------------------
    Atom  No    Charge         Core      Valence    Rydberg      Total
 -----------------------------------------------------------------------
      C    1   -0.12621      1.99998     4.12623    0.00000     6.12621
      C    2    0.01590      1.99997     3.98414    0.00000     5.98410
      C    3    0.14194      1.99989     3.85817    0.00000     5.85806
      C    4   -0.06658      1.99996     4.06662    0.00000     6.06658
      C    5   -0.02044      1.99995     4.02049    0.00000     6.02044
      C    6   -0.06278      1.99996     4.06282    0.00000     6.06278
      C    7   -0.09480      1.99996     4.09484    0.00000     6.09480
      O    8   -0.33242      1.99999     6.33243    0.00000     8.33242
      C    9    0.01788      1.99996     3.98216    0.00000     5.98212
      C   10   -0.13149      1.99997     4.13152    0.00000     6.13149
      C   11   -0.12782      1.99997     4.12785    0.00000     6.12782
      H   12    0.03604      0.00000     0.96396    0.00000     0.96396
      H   13    0.03654      0.00000     0.96346    0.00000     0.96346
      H   14    0.03574      0.00000     0.96426    0.00000     0.96426
      H   15    0.02359      0.00000     0.97641    0.00000     0.97641
      H   16    0.02017      0.00000     0.97983    0.00000     0.97983
      H   17    0.03121      0.00000     0.96879    0.00000     0.96879
      H   18    0.02621      0.00000     0.97379    0.00000     0.97379
      H   19    0.02159      0.00000     0.97841    0.00000     0.97841
      H   20    0.02747      0.00000     0.97253    0.00000     0.97253
      H   21    0.03104      0.00000     0.96896    0.00000     0.96896
      H   22    0.03612      0.00000     0.96388    0.00000     0.96388
      H   23    0.02433      0.00000     0.97567    0.00000     0.97567
      H   24    0.19161      0.00000     0.80839    0.00000     0.80839
      H   25    0.03202      0.00000     0.96798    0.00000     0.96798
      H   26    0.03754      0.00000     0.96246    0.00000     0.96246
      H   27    0.02747      0.00000     0.97253    0.00000     0.97253
      H   28    0.03941      0.00000     0.96059    0.00000     0.96059
      H   29    0.03558      0.00000     0.96442    0.00000     0.96442
      H   30    0.03649      0.00000     0.96351    0.00000     0.96351
      H   31    0.03665      0.00000     0.96335    0.00000     0.96335
 =======================================================================
   * Total *    0.00000     21.99954    66.00046    0.00000    88.00000

 Normal termination of Gaussian 09 at Sun May 24 02:10:10 2020.
