 Gaussian 09, Revision C.01,
 Gaussian 09:  EM64L-G09RevC.01 23-Sep-2011

 ------------------------
 # rhf/STO-3G nmr pop=nbo
 ------------------------

 99/9=1/99;
 -------
 comment
 -------
 Charge =  0 Multiplicity = 1

                         Standard orientation:
 ---------------------------------------------------------------------
 Center     Atomic      Atomic             Coordinates (Angstroms)
 Number     Number       Type             X           Y           Z
 ---------------------------------------------------------------------
      1          6           0       -3.680870   -0.056770   -0.176045
      2          6           0       -2.206897    0.006612    0.221536
      3          6           0        0.090011   -1.032439   -0.158481
      4          6           0       -0.128521    1.460913    0.229592
      5          6           0        0.663309    0.359268   -0.502700
      6          6           0       -1.620729    1.387633   -0.095961
      7          6           0       -1.408255   -1.101732   -0.482737
      8          8           0        0.272963   -1.324012    1.223205
      9          6           0        2.198510    0.528793   -0.303481
     10          6           0        2.992218   -0.447556   -1.178824
     11          6           0        2.696713    0.437888    1.140671
     12          1           0       -3.810650    0.097399   -1.252639
     13          1           0       -4.110521   -1.030730    0.080849
     14          1           0       -4.257593    0.712554    0.348124
     15          1           0       -2.146932   -0.153229    1.306178
     16          1           0        0.608436   -1.807889   -0.731844
     17          1           0        0.250018    2.448409   -0.059994
     18          1           0       -0.001711    1.375435    1.314760
     19          1           0        0.484211    0.511298   -1.578172
     20          1           0       -1.769494    1.622062   -1.157875
     21          1           0       -2.152207    2.158449    0.474980
     22          1           0       -1.545681   -1.025866   -1.568900
     23          1           0       -1.805529   -2.076318   -0.172696
     24          1           0       -0.083025   -2.213958    1.386389
     25          1           0        2.448904    1.538792   -0.657645
     26          1           0        2.886564   -1.480821   -0.833464
     27          1           0        2.661420   -0.397297   -2.221389
     28          1           0        4.059435   -0.200650   -1.158229
     29          1           0        2.604048   -0.573805    1.545163
     30          1           0        2.164696    1.128245    1.800414
     31          1           0        3.758969    0.704362    1.188928
 ---------------------------------------------------------------------

 SCF Done:  E(RHF) =  -459.622118555     A.U. after   10 cycles

      1  C    Isotropic =   221.0592   Anisotropy =    28.3228

      2  C    Isotropic =   215.9180   Anisotropy =     8.3266

      3  C    Isotropic =   189.9725   Anisotropy =    36.8205

      4  C    Isotropic =   217.2065   Anisotropy =    15.8699

      5  C    Isotropic =   209.3408   Anisotropy =    15.3692

      6  C    Isotropic =   215.1617   Anisotropy =    16.6853

      7  C    Isotropic =   212.6870   Anisotropy =    19.6092

      8  O    Isotropic =   357.7492   Anisotropy =    98.3840

      9  C    Isotropic =   212.5251   Anisotropy =    17.6588

     10  C    Isotropic =   221.2544   Anisotropy =    25.7913

     11  C    Isotropic =   223.5080   Anisotropy =    21.1487

     12  H    Isotropic =    32.7092   Anisotropy =    11.6655

     13  H    Isotropic =    32.5204   Anisotropy =    13.5777

     14  H    Isotropic =    32.4046   Anisotropy =    13.9275

     15  H    Isotropic =    32.3962   Anisotropy =    10.0554

     16  H    Isotropic =    31.9301   Anisotropy =     9.9576

     17  H    Isotropic =    32.4882   Anisotropy =    13.4993

     18  H    Isotropic =    32.1000   Anisotropy =     9.4957

     19  H    Isotropic =    32.7579   Anisotropy =     9.5499

     20  H    Isotropic =    32.7892   Anisotropy =    11.2562

     21  H    Isotropic =    32.2964   Anisotropy =    14.2041

     22  H    Isotropic =    32.7320   Anisotropy =    10.9028

     23  H    Isotropic =    32.8170   Anisotropy =    12.6057

     24  H    Isotropic =    35.2412   Anisotropy =    19.4546

     25  H    Isotropic =    32.4231   Anisotropy =    12.4935

     26  H    Isotropic =    32.4215   Anisotropy =     9.4512

     27  H    Isotropic =    32.5861   Anisotropy =    12.4039

     28  H    Isotropic =    32.3653   Anisotropy =    14.6646

     29  H    Isotropic =    32.1599   Anisotropy =     9.4236

     30  H    Isotropic =    32.3110   Anisotropy =    10.5958

     31  H    Isotropic =    32.5741   Anisotropy =    14.9879

 The electronic state is 1-A.
 Alpha  occ. eigenvalues --  -20.23736 -11.08524 -11.04347 -11.04272 -11.04186
 Alpha  occ. eigenvalues --  -11.03748 -11.03214 -11.03042 -11.02993 -11.02635
 Alpha  occ. eigenvalues --  -11.01826  -1.27963  -1.07647  -1.03334  -0.96623
 Alpha  occ. eigenvalues --   -0.94940  -0.88106  -0.87589  -0.79170  -0.77968
 Alpha  occ. eigenvalues --   -0.73050  -0.69221  -0.62270  -0.60376  -0.58315
 Alpha  occ. eigenvalues --   -0.57312  -0.56481  -0.54020  -0.53417  -0.52249
 Alpha  occ. eigenvalues --   -0.51091  -0.49867  -0.49012  -0.47804  -0.46249
 Alpha  occ. eigenvalues --   -0.44847  -0.43607  -0.42868  -0.42158  -0.40502
 Alpha  occ. eigenvalues --   -0.39844  -0.38178  -0.36040  -0.33027
 Alpha virt. eigenvalues --    0.53055   0.56507   0.57976   0.59521   0.61002
 Alpha virt. eigenvalues --    0.61771   0.62462   0.65513   0.66707   0.68989
 Alpha virt. eigenvalues --    0.69054   0.70382   0.71099   0.72486   0.72646

 Mulliken atomic charges:
              1
     1  C   -0.172277
     2  C   -0.023284
     3  C    0.075684
     4  C   -0.100697
     5  C   -0.029786
     6  C   -0.098939
     7  C   -0.111733
     8  O   -0.315359
     9  C   -0.016808
    10  C   -0.173459
    11  C   -0.174605
    12  H    0.052147
    13  H    0.052122
    14  H    0.054423
    15  H    0.052895
    16  H    0.041222
    17  H    0.048256
    18  H    0.058112
    19  H    0.045559
    20  H    0.044195
    21  H    0.049618
    22  H    0.049950
    23  H    0.044064
    24  H    0.176458
    25  H    0.045735
    26  H    0.053189
    27  H    0.049751
    28  H    0.053518
    29  H    0.065494
    30  H    0.055660
    31  H    0.048896
 Sum of Mulliken atomic charges =   0.00000

 Dipole moment (field-independent basis, Debye):
    X=             -0.6199    Y=             -0.7275    Z=             -0.8304  Tot=              1.2661
 Quadrupole moment (field-independent basis, Debye-Ang):
   XX=            -68.8468   YY=            -64.0460   ZZ=            -68.6904
   XY=              1.1066   XZ=             -1.1791   YZ=             -0.6059

 Summary of Natural Population Analysis:

                                       Natural Population
                Natural  -----------------------------------------------
    Atom  No    Charge         Core      Valence    Rydberg      Total
 -----------------------------------------------------------------------
      C    1   -0.12743      1.99997     4.12745    0.00000     6.12743
      C    2    0.01419      1.99997     3.98584    0.00000     5.98581
      C    3    0.14343      1.99988     3.85668    0.00000     5.85657
      C    4   -0.06400      1.99996     4.06404    0.00000     6.06400
      C    5   -0.00800      1.99995     4.00805    0.00000     6.00800
      C    6   -0.06118      1.99996     4.06122    0.00000     6.06118
      C    7   -0.08691      1.99996     4.08694    0.00000     6.08691
      O    8   -0.33630      1.99999     6.33631    0.00000     8.33630
      C    9    0.02397      1.99996     3.97607    0.00000     5.97603
      C   10   -0.12916      1.99997     4.12919    0.00000     6.12916
      C   11   -0.13170      1.99997     4.13173    0.00000     6.13170
      H   12    0.03493      0.00000     0.96507    0.00000     0.96507
      H   13    0.03499      0.00000     0.96501    0.00000     0.96501
      H   14    0.03716      0.00000     0.96284    0.00000     0.96284
      H   15    0.02809      0.00000     0.97191    0.00000     0.97191
      H   16    0.00526      0.00000     0.99474    0.00000     0.99474
      H   17    0.02751      0.00000     0.97249    0.00000     0.97249
      H   18    0.03603      0.00000     0.96397    0.00000     0.96397
      H   19    0.02074      0.00000     0.97926    0.00000     0.97926
      H   20    0.02354      0.00000     0.97646    0.00000     0.97646
      H   21    0.02892      0.00000     0.97108    0.00000     0.97108
      H   22    0.02971      0.00000     0.97029    0.00000     0.97029
      H   23    0.02419      0.00000     0.97581    0.00000     0.97581
      H   24    0.18914      0.00000     0.81086    0.00000     0.81086
      H   25    0.02063      0.00000     0.97937    0.00000     0.97937
      H   26    0.03572      0.00000     0.96428    0.00000     0.96428
      H   27    0.03265      0.00000     0.96735    0.00000     0.96735
      H   28    0.03638      0.00000     0.96362    0.00000     0.96362
      H   29    0.04690      0.00000     0.95310    0.00000     0.95310
      H   30    0.03826      0.00000     0.96174    0.00000     0.96174
      H   31    0.03233      0.00000     0.96767    0.00000     0.96767
 =======================================================================
   * Total *    0.00000     21.99955    66.00045    0.00000    88.00000

 Normal termination of Gaussian 09 at Tue Aug  3 16:37:58 2021.
