 Gaussian 09, Revision C.01,
 Gaussian 09:  EM64L-G09RevC.01 23-Sep-2011

 ------------------------
 # rhf/STO-3G nmr pop=nbo
 ------------------------

 99/9=1/99;
 -------
 comment
 -------
 Charge =  0 Multiplicity = 1

                         Standard orientation:
 ---------------------------------------------------------------------
 Center     Atomic      Atomic             Coordinates (Angstroms)
 Number     Number       Type             X           Y           Z
 ---------------------------------------------------------------------
      1          6           0        3.724920    0.134340   -0.004698
      2          6           0        2.258410   -0.117904    0.339931
      3          6           0       -0.075178    0.890815    0.338865
      4          6           0        0.243655   -1.570527   -0.130294
      5          6           0       -0.623519   -0.330370   -0.431405
      6          6           0        1.720894   -1.326592   -0.431467
      7          6           0        1.411675    1.122775    0.047180
      8          8           0       -0.783509    2.067615   -0.033374
      9          6           0       -2.131212   -0.653099   -0.193209
     10          6           0       -3.068673    0.329236   -0.903991
     11          6           0       -2.523132   -0.758104    1.283078
     12          1           0        4.118170    0.980731    0.568183
     13          1           0        4.335691   -0.743180    0.232224
     14          1           0        3.851932    0.357851   -1.069416
     15          1           0        2.196856   -0.334881    1.414650
     16          1           0       -0.207184    0.746771    1.417313
     17          1           0       -0.101996   -2.421536   -0.729382
     18          1           0        0.142418   -1.860432    0.922065
     19          1           0       -0.519762   -0.117224   -1.505668
     20          1           0        1.849830   -1.172613   -1.510469
     21          1           0        2.295024   -2.223092   -0.168372
     22          1           0        1.533110    1.429322   -1.000814
     23          1           0        1.769998    1.972299    0.642856
     24          1           0       -0.431306    2.803704    0.495403
     25          1           0       -2.324693   -1.634434   -0.648462
     26          1           0       -3.090240    1.308111   -0.417338
     27          1           0       -2.776742    0.466744   -1.950083
     28          1           0       -4.094833   -0.055543   -0.896992
     29          1           0       -2.441384    0.206541    1.793882
     30          1           0       -1.900909   -1.482826    1.815411
     31          1           0       -3.562938   -1.090647    1.378069
 ---------------------------------------------------------------------

 SCF Done:  E(RHF) =  -459.622162659     A.U. after   10 cycles

      1  C    Isotropic =   221.1698   Anisotropy =    28.2822

      2  C    Isotropic =   215.2334   Anisotropy =     7.9709

      3  C    Isotropic =   188.3364   Anisotropy =    41.3277

      4  C    Isotropic =   215.7022   Anisotropy =    18.3486

      5  C    Isotropic =   208.6881   Anisotropy =    15.1575

      6  C    Isotropic =   215.5945   Anisotropy =    16.7317

      7  C    Isotropic =   213.2201   Anisotropy =    24.4047

      8  O    Isotropic =   355.9576   Anisotropy =    88.1990

      9  C    Isotropic =   211.8761   Anisotropy =    18.9569

     10  C    Isotropic =   220.1491   Anisotropy =    27.4792

     11  C    Isotropic =   224.0176   Anisotropy =    20.2021

     12  H    Isotropic =    32.5117   Anisotropy =    13.6197

     13  H    Isotropic =    32.4547   Anisotropy =    13.8639

     14  H    Isotropic =    32.6480   Anisotropy =    11.6522

     15  H    Isotropic =    32.9161   Anisotropy =    10.7079

     16  H    Isotropic =    32.2012   Anisotropy =     6.6308

     17  H    Isotropic =    32.4121   Anisotropy =    13.3670

     18  H    Isotropic =    32.6864   Anisotropy =     9.8029

     19  H    Isotropic =    32.3834   Anisotropy =     8.9998

     20  H    Isotropic =    32.7280   Anisotropy =    11.1449

     21  H    Isotropic =    32.4273   Anisotropy =    14.1264

     22  H    Isotropic =    32.4624   Anisotropy =     9.9483

     23  H    Isotropic =    32.7696   Anisotropy =    12.3885

     24  H    Isotropic =    35.0419   Anisotropy =    19.1420

     25  H    Isotropic =    32.4742   Anisotropy =    11.9930

     26  H    Isotropic =    31.8859   Anisotropy =     9.4145

     27  H    Isotropic =    32.3373   Anisotropy =    12.1051

     28  H    Isotropic =    32.4216   Anisotropy =    14.9176

     29  H    Isotropic =    32.5457   Anisotropy =     9.4705

     30  H    Isotropic =    32.6058   Anisotropy =    10.8775

     31  H    Isotropic =    32.4827   Anisotropy =    14.8030

 The electronic state is 1-A.
 Alpha  occ. eigenvalues --  -20.23691 -11.08510 -11.04839 -11.04202 -11.04101
 Alpha  occ. eigenvalues --  -11.03698 -11.03659 -11.03613 -11.03276 -11.02615
 Alpha  occ. eigenvalues --  -11.01699  -1.27869  -1.08226  -1.03407  -0.96864
 Alpha  occ. eigenvalues --   -0.94665  -0.88192  -0.87714  -0.79329  -0.77760
 Alpha  occ. eigenvalues --   -0.73231  -0.70735  -0.60855  -0.60268  -0.59874
 Alpha  occ. eigenvalues --   -0.57872  -0.56852  -0.54232  -0.52843  -0.51997
 Alpha  occ. eigenvalues --   -0.50052  -0.49748  -0.48879  -0.47340  -0.47129
 Alpha  occ. eigenvalues --   -0.45629  -0.44730  -0.42949  -0.42109  -0.40575
 Alpha  occ. eigenvalues --   -0.39416  -0.38484  -0.36502  -0.32950
 Alpha virt. eigenvalues --    0.53160   0.55547   0.56704   0.60599   0.60727
 Alpha virt. eigenvalues --    0.61485   0.63353   0.65741   0.67339   0.68426
 Alpha virt. eigenvalues --    0.68843   0.69941   0.71038   0.72021   0.72577

 Mulliken atomic charges:
              1
     1  C   -0.171848
     2  C   -0.023534
     3  C    0.076969
     4  C   -0.101007
     5  C   -0.032046
     6  C   -0.099663
     7  C   -0.112897
     8  O   -0.313788
     9  C   -0.016619
    10  C   -0.172881
    11  C   -0.175151
    12  H    0.053105
    13  H    0.054217
    14  H    0.053988
    15  H    0.045919
    16  H    0.039361
    17  H    0.051476
    18  H    0.047285
    19  H    0.051649
    20  H    0.048346
    21  H    0.050293
    22  H    0.054507
    23  H    0.043693
    24  H    0.176196
    25  H    0.045624
    26  H    0.066939
    27  H    0.052396
    28  H    0.047762
    29  H    0.054816
    30  H    0.050779
    31  H    0.054114
 Sum of Mulliken atomic charges =   0.00000

 Dipole moment (field-independent basis, Debye):
    X=              1.0676    Y=             -0.1581    Z=              0.8765  Tot=              1.3904
 Quadrupole moment (field-independent basis, Debye-Ang):
   XX=            -69.7926   YY=            -66.2585   ZZ=            -66.8886
   XY=              2.1421   XZ=             -0.3852   YZ=              2.5942

 Summary of Natural Population Analysis:

                                       Natural Population
                Natural  -----------------------------------------------
    Atom  No    Charge         Core      Valence    Rydberg      Total
 -----------------------------------------------------------------------
      C    1   -0.12702      1.99997     4.12704    0.00000     6.12702
      C    2    0.01467      1.99997     3.98536    0.00000     5.98533
      C    3    0.14461      1.99989     3.85550    0.00000     5.85539
      C    4   -0.06312      1.99996     4.06316    0.00000     6.06312
      C    5   -0.01029      1.99995     4.01034    0.00000     6.01029
      C    6   -0.06267      1.99996     4.06270    0.00000     6.06267
      C    7   -0.08910      1.99996     4.08913    0.00000     6.08910
      O    8   -0.33476      1.99999     6.33476    0.00000     8.33476
      C    9    0.02431      1.99996     3.97573    0.00000     5.97569
      C   10   -0.12953      1.99997     4.12956    0.00000     6.12953
      C   11   -0.13123      1.99997     4.13126    0.00000     6.13123
      H   12    0.03589      0.00000     0.96411    0.00000     0.96411
      H   13    0.03693      0.00000     0.96307    0.00000     0.96307
      H   14    0.03666      0.00000     0.96334    0.00000     0.96334
      H   15    0.02206      0.00000     0.97794    0.00000     0.97794
      H   16    0.00362      0.00000     0.99638    0.00000     0.99638
      H   17    0.03050      0.00000     0.96950    0.00000     0.96950
      H   18    0.02610      0.00000     0.97390    0.00000     0.97390
      H   19    0.02580      0.00000     0.97420    0.00000     0.97420
      H   20    0.02763      0.00000     0.97237    0.00000     0.97237
      H   21    0.02972      0.00000     0.97028    0.00000     0.97028
      H   22    0.03365      0.00000     0.96635    0.00000     0.96635
      H   23    0.02399      0.00000     0.97601    0.00000     0.97601
      H   24    0.18882      0.00000     0.81118    0.00000     0.81118
      H   25    0.02039      0.00000     0.97961    0.00000     0.97961
      H   26    0.04790      0.00000     0.95210    0.00000     0.95210
      H   27    0.03525      0.00000     0.96475    0.00000     0.96475
      H   28    0.03095      0.00000     0.96905    0.00000     0.96905
      H   29    0.03741      0.00000     0.96259    0.00000     0.96259
      H   30    0.03361      0.00000     0.96639    0.00000     0.96639
      H   31    0.03722      0.00000     0.96278    0.00000     0.96278
 =======================================================================
   * Total *    0.00000     21.99956    66.00044    0.00000    88.00000

 Normal termination of Gaussian 09 at Tue Aug  3 16:32:39 2021.
