 Gaussian 09, Revision C.01,
 Gaussian 09:  EM64L-G09RevC.01 23-Sep-2011

 ------------------------
 # rhf/STO-3G nmr pop=nbo
 ------------------------

 99/9=1/99;
 -------
 comment
 -------
 Charge =  0 Multiplicity = 1

                         Standard orientation:
 ---------------------------------------------------------------------
 Center     Atomic      Atomic             Coordinates (Angstroms)
 Number     Number       Type             X           Y           Z
 ---------------------------------------------------------------------
      1          6           0        3.684274   -0.398399    0.020803
      2          6           0        2.205549   -0.279276    0.384427
      3          6           0        0.120431    1.143668    0.142179
      4          6           0       -0.071316   -1.374056    0.178676
      5          6           0       -0.674137   -0.072952   -0.382094
      6          6           0        1.421536   -1.490388   -0.131268
      7          6           0        1.614256    1.019404   -0.169842
      8          8           0       -0.373667    2.334010   -0.466611
      9          6           0       -2.208253    0.061516   -0.140152
     10          6           0       -2.610040    0.091231    1.337019
     11          6           0       -2.995431   -1.039155   -0.861311
     12          1           0        3.827243   -0.426112   -1.064783
     13          1           0        4.250628    0.451803    0.415284
     14          1           0        4.115189   -1.312559    0.442507
     15          1           0        2.128334   -0.256186    1.479616
     16          1           0       -0.009461    1.244530    1.225463
     17          1           0       -0.578327   -2.247026   -0.245467
     18          1           0       -0.208689   -1.419134    1.265340
     19          1           0       -0.544366   -0.090795   -1.474853
     20          1           0        1.557553   -1.591283   -1.215746
     21          1           0        1.812519   -2.408607    0.323354
     22          1           0        1.766568    1.077083   -1.256198
     23          1           0        2.145942    1.884674    0.246420
     24          1           0        0.131596    3.081171   -0.103313
     25          1           0       -2.533355    1.012161   -0.583033
     26          1           0       -2.356979   -0.843267    1.846972
     27          1           0       -2.128211    0.915966    1.869295
     28          1           0       -3.692114    0.234566    1.434611
     29          1           0       -2.831733   -2.022264   -0.409198
     30          1           0       -2.713775   -1.093987   -1.917946
     31          1           0       -4.070453   -0.832371   -0.816062
 ---------------------------------------------------------------------

 SCF Done:  E(RHF) =  -459.623689384     A.U. after   10 cycles

      1  C    Isotropic =   221.1699   Anisotropy =    28.2822

      2  C    Isotropic =   215.2088   Anisotropy =     8.0187

      3  C    Isotropic =   188.4696   Anisotropy =    40.6933

      4  C    Isotropic =   219.0917   Anisotropy =    13.5480

      5  C    Isotropic =   208.9463   Anisotropy =    15.2729

      6  C    Isotropic =   215.5504   Anisotropy =    17.3619

      7  C    Isotropic =   213.3432   Anisotropy =    23.5920

      8  O    Isotropic =   355.2908   Anisotropy =    85.6056

      9  C    Isotropic =   214.7138   Anisotropy =    14.5901

     10  C    Isotropic =   224.3230   Anisotropy =    20.5898

     11  C    Isotropic =   221.2467   Anisotropy =    26.5478

     12  H    Isotropic =    32.6513   Anisotropy =    11.6495

     13  H    Isotropic =    32.5090   Anisotropy =    13.6962

     14  H    Isotropic =    32.4585   Anisotropy =    13.7913

     15  H    Isotropic =    32.9070   Anisotropy =    10.6933

     16  H    Isotropic =    32.1742   Anisotropy =     6.9801

     17  H    Isotropic =    32.4074   Anisotropy =    12.7906

     18  H    Isotropic =    32.8835   Anisotropy =     9.9111

     19  H    Isotropic =    32.3611   Anisotropy =     8.8586

     20  H    Isotropic =    32.7688   Anisotropy =    11.0623

     21  H    Isotropic =    32.4333   Anisotropy =    13.9119

     22  H    Isotropic =    32.4716   Anisotropy =    10.0956

     23  H    Isotropic =    32.7557   Anisotropy =    12.6291

     24  H    Isotropic =    34.9754   Anisotropy =    19.2339

     25  H    Isotropic =    31.7612   Anisotropy =    11.5431

     26  H    Isotropic =    32.7688   Anisotropy =     9.9761

     27  H    Isotropic =    32.4453   Anisotropy =    10.6947

     28  H    Isotropic =    32.5187   Anisotropy =    14.7351

     29  H    Isotropic =    32.5419   Anisotropy =    10.0600

     30  H    Isotropic =    32.4649   Anisotropy =    12.5065

     31  H    Isotropic =    32.3691   Anisotropy =    14.7006

 The electronic state is 1-A.
 Alpha  occ. eigenvalues --  -20.23630 -11.08354 -11.04840 -11.04179 -11.04015
 Alpha  occ. eigenvalues --  -11.03691 -11.03677 -11.03606 -11.03274 -11.02574
 Alpha  occ. eigenvalues --  -11.02554  -1.27734  -1.08242  -1.03534  -0.96772
 Alpha  occ. eigenvalues --   -0.94761  -0.88504  -0.87830  -0.79898  -0.77297
 Alpha  occ. eigenvalues --   -0.73385  -0.70431  -0.61238  -0.60414  -0.59263
 Alpha  occ. eigenvalues --   -0.58212  -0.56751  -0.54818  -0.52793  -0.52122
 Alpha  occ. eigenvalues --   -0.50407  -0.49820  -0.48989  -0.47814  -0.47374
 Alpha  occ. eigenvalues --   -0.45219  -0.44083  -0.43162  -0.42133  -0.41109
 Alpha  occ. eigenvalues --   -0.39809  -0.38276  -0.36395  -0.33034
 Alpha virt. eigenvalues --    0.53370   0.55318   0.57584   0.60232   0.60955
 Alpha virt. eigenvalues --    0.61403   0.63036   0.66021   0.66402   0.68147
 Alpha virt. eigenvalues --    0.68832   0.69856   0.70992   0.71724   0.72472

 Mulliken atomic charges:
              1
     1  C   -0.171869
     2  C   -0.023449
     3  C    0.076943
     4  C   -0.103859
     5  C   -0.031425
     6  C   -0.098889
     7  C   -0.113346
     8  O   -0.314020
     9  C   -0.020334
    10  C   -0.175399
    11  C   -0.173099
    12  H    0.053958
    13  H    0.053171
    14  H    0.054196
    15  H    0.045995
    16  H    0.038367
    17  H    0.053869
    18  H    0.048110
    19  H    0.050855
    20  H    0.048204
    21  H    0.050298
    22  H    0.054347
    23  H    0.043712
    24  H    0.176115
    25  H    0.061212
    26  H    0.051241
    27  H    0.053392
    28  H    0.054031
    29  H    0.051453
    30  H    0.052722
    31  H    0.053499
 Sum of Mulliken atomic charges =   0.00000

 Dipole moment (field-independent basis, Debye):
    X=              1.0210    Y=             -0.1396    Z=              0.8501  Tot=              1.3359
 Quadrupole moment (field-independent basis, Debye-Ang):
   XX=            -68.6653   YY=            -66.4036   ZZ=            -67.8491
   XY=              2.5057   XZ=             -0.2527   YZ=              2.2315

 Summary of Natural Population Analysis:

                                       Natural Population
                Natural  -----------------------------------------------
    Atom  No    Charge         Core      Valence    Rydberg      Total
 -----------------------------------------------------------------------
      C    1   -0.12708      1.99997     4.12711    0.00000     6.12708
      C    2    0.01486      1.99997     3.98517    0.00000     5.98514
      C    3    0.14452      1.99989     3.85559    0.00000     5.85548
      C    4   -0.06649      1.99996     4.06653    0.00000     6.06649
      C    5   -0.00958      1.99995     4.00963    0.00000     6.00958
      C    6   -0.06125      1.99996     4.06129    0.00000     6.06125
      C    7   -0.08974      1.99996     4.08978    0.00000     6.08974
      O    8   -0.33500      1.99999     6.33501    0.00000     8.33500
      C    9    0.01939      1.99996     3.98065    0.00000     5.98061
      C   10   -0.13139      1.99997     4.13142    0.00000     6.13139
      C   11   -0.12857      1.99997     4.12860    0.00000     6.12857
      H   12    0.03663      0.00000     0.96337    0.00000     0.96337
      H   13    0.03596      0.00000     0.96404    0.00000     0.96404
      H   14    0.03691      0.00000     0.96309    0.00000     0.96309
      H   15    0.02208      0.00000     0.97792    0.00000     0.97792
      H   16    0.00263      0.00000     0.99737    0.00000     0.99737
      H   17    0.03278      0.00000     0.96722    0.00000     0.96722
      H   18    0.02716      0.00000     0.97284    0.00000     0.97284
      H   19    0.02518      0.00000     0.97482    0.00000     0.97482
      H   20    0.02735      0.00000     0.97265    0.00000     0.97265
      H   21    0.02958      0.00000     0.97042    0.00000     0.97042
      H   22    0.03359      0.00000     0.96641    0.00000     0.96641
      H   23    0.02405      0.00000     0.97595    0.00000     0.97595
      H   24    0.18870      0.00000     0.81130    0.00000     0.81130
      H   25    0.03466      0.00000     0.96534    0.00000     0.96534
      H   26    0.03408      0.00000     0.96592    0.00000     0.96592
      H   27    0.03605      0.00000     0.96395    0.00000     0.96395
      H   28    0.03716      0.00000     0.96284    0.00000     0.96284
      H   29    0.03404      0.00000     0.96596    0.00000     0.96596
      H   30    0.03539      0.00000     0.96461    0.00000     0.96461
      H   31    0.03633      0.00000     0.96367    0.00000     0.96367
 =======================================================================
   * Total *    0.00000     21.99956    66.00044    0.00000    88.00000

 Normal termination of Gaussian 09 at Tue Aug  3 16:30:49 2021.
