 Gaussian 09, Revision C.01,
 Gaussian 09:  EM64L-G09RevC.01 23-Sep-2011

 ------------------------
 # rhf/STO-3G nmr pop=nbo
 ------------------------

 99/9=1/99;
 -------
 comment
 -------
 Charge =  0 Multiplicity = 1

                         Standard orientation:
 ---------------------------------------------------------------------
 Center     Atomic      Atomic             Coordinates (Angstroms)
 Number     Number       Type             X           Y           Z
 ---------------------------------------------------------------------
      1          6           0        3.398792   -0.679087   -0.416730
      2          6           0        2.199342   -0.293031    0.450269
      3          6           0        0.150388    1.191779    0.320517
      4          6           0        0.061646   -1.191940   -0.615550
      5          6           0       -0.672310    0.162748   -0.491197
      6          6           0        1.128668   -1.397966    0.457297
      7          6           0        1.639633    1.067711    0.008479
      8          8           0       -0.288462    2.513199    0.012112
      9          6           0       -2.136601    0.058015    0.031392
     10          6           0       -2.268258   -0.651190    1.382307
     11          6           0       -3.051675   -0.620577   -0.995922
     12          1           0        3.104884   -0.831934   -1.460547
     13          1           0        4.164245    0.103754   -0.389991
     14          1           0        3.857055   -1.605829   -0.055533
     15          1           0        2.567168   -0.193851    1.480382
     16          1           0        0.003408    1.057249    1.396676
     17          1           0        0.551007   -1.231114   -1.597867
     18          1           0       -0.635758   -2.035014   -0.601957
     19          1           0       -0.759082    0.560830   -1.513661
     20          1           0        1.591039   -2.384929    0.337709
     21          1           0        0.640413   -1.411508    1.440013
     22          1           0        1.793349    1.224588   -1.067967
     23          1           0        2.197838    1.876454    0.497044
     24          1           0       -0.122769    2.671143   -0.932935
     25          1           0       -2.519525    1.079109    0.160977
     26          1           0       -1.958603   -1.699246    1.325142
     27          1           0       -1.672025   -0.160953    2.156567
     28          1           0       -3.310643   -0.636189    1.719971
     29          1           0       -2.790346   -1.671898   -1.149100
     30          1           0       -2.996788   -0.111032   -1.963635
     31          1           0       -4.094920   -0.583986   -0.663350
 ---------------------------------------------------------------------

 SCF Done:  E(RHF) =  -459.612776937     A.U. after   10 cycles

      1  C    Isotropic =   221.0471   Anisotropy =    26.9895

      2  C    Isotropic =   216.5743   Anisotropy =     9.5281

      3  C    Isotropic =   189.9620   Anisotropy =    41.8905

      4  C    Isotropic =   220.7381   Anisotropy =    15.8941

      5  C    Isotropic =   207.4754   Anisotropy =    16.2579

      6  C    Isotropic =   217.7209   Anisotropy =    14.5425

      7  C    Isotropic =   214.7491   Anisotropy =    23.0476

      8  O    Isotropic =   348.4222   Anisotropy =    87.0089

      9  C    Isotropic =   213.9114   Anisotropy =    15.3343

     10  C    Isotropic =   224.3839   Anisotropy =    20.1814

     11  C    Isotropic =   221.2488   Anisotropy =    27.0650

     12  H    Isotropic =    32.6493   Anisotropy =     9.9829

     13  H    Isotropic =    32.4493   Anisotropy =    13.9421

     14  H    Isotropic =    32.5604   Anisotropy =    14.2248

     15  H    Isotropic =    32.3487   Anisotropy =    13.7583

     16  H    Isotropic =    31.5713   Anisotropy =     7.2093

     17  H    Isotropic =    32.6356   Anisotropy =    12.1524

     18  H    Isotropic =    32.6047   Anisotropy =    11.7575

     19  H    Isotropic =    32.9879   Anisotropy =     9.7355

     20  H    Isotropic =    32.6964   Anisotropy =    13.7932

     21  H    Isotropic =    32.6547   Anisotropy =    10.8186

     22  H    Isotropic =    33.2073   Anisotropy =     9.4068

     23  H    Isotropic =    31.9372   Anisotropy =    13.8602

     24  H    Isotropic =    35.4130   Anisotropy =    15.7576

     25  H    Isotropic =    31.9948   Anisotropy =    11.4373

     26  H    Isotropic =    32.7852   Anisotropy =     9.1571

     27  H    Isotropic =    32.5025   Anisotropy =    10.3934

     28  H    Isotropic =    32.5147   Anisotropy =    15.0332

     29  H    Isotropic =    32.5527   Anisotropy =     9.9529

     30  H    Isotropic =    32.6065   Anisotropy =    12.8669

     31  H    Isotropic =    32.4110   Anisotropy =    14.6878

 The electronic state is 1-A.
 Alpha  occ. eigenvalues --  -20.23833 -11.08510 -11.04786 -11.04439 -11.04231
 Alpha  occ. eigenvalues --  -11.03790 -11.03716 -11.03703 -11.03312 -11.02937
 Alpha  occ. eigenvalues --  -11.02909  -1.27869  -1.08338  -1.03679  -0.96642
 Alpha  occ. eigenvalues --   -0.94794  -0.89000  -0.88093  -0.81184  -0.78065
 Alpha  occ. eigenvalues --   -0.72619  -0.69448  -0.63486  -0.60896  -0.58366
 Alpha  occ. eigenvalues --   -0.57973  -0.55618  -0.54820  -0.52582  -0.52073
 Alpha  occ. eigenvalues --   -0.50685  -0.50594  -0.49563  -0.48636  -0.47546
 Alpha  occ. eigenvalues --   -0.46217  -0.44267  -0.43021  -0.42285  -0.41466
 Alpha  occ. eigenvalues --   -0.39812  -0.39033  -0.36215  -0.32504
 Alpha virt. eigenvalues --    0.53789   0.54883   0.57516   0.60010   0.60400
 Alpha virt. eigenvalues --    0.60822   0.61959   0.64381   0.65279   0.66382
 Alpha virt. eigenvalues --    0.67221   0.68623   0.69606   0.70937   0.71504

 Mulliken atomic charges:
              1
     1  C   -0.170843
     2  C   -0.024759
     3  C    0.075933
     4  C   -0.104767
     5  C   -0.039527
     6  C   -0.102416
     7  C   -0.114375
     8  O   -0.311410
     9  C   -0.020704
    10  C   -0.175979
    11  C   -0.173294
    12  H    0.051520
    13  H    0.054068
    14  H    0.053553
    15  H    0.049047
    16  H    0.059814
    17  H    0.046904
    18  H    0.054222
    19  H    0.040050
    20  H    0.052219
    21  H    0.048844
    22  H    0.042781
    23  H    0.057738
    24  H    0.175433
    25  H    0.056858
    26  H    0.052498
    27  H    0.053569
    28  H    0.055125
    29  H    0.052031
    30  H    0.051580
    31  H    0.054286
 Sum of Mulliken atomic charges =   0.00000

 Dipole moment (field-independent basis, Debye):
    X=              0.5759    Y=             -0.9523    Z=             -0.8734  Tot=              1.4147
 Quadrupole moment (field-independent basis, Debye-Ang):
   XX=            -68.0977   YY=            -71.4602   ZZ=            -66.1871
   XY=              1.4356   XZ=              0.2103   YZ=             -2.9876

 Summary of Natural Population Analysis:

                                       Natural Population
                Natural  -----------------------------------------------
    Atom  No    Charge         Core      Valence    Rydberg      Total
 -----------------------------------------------------------------------
      C    1   -0.12580      1.99998     4.12582    0.00000     6.12580
      C    2    0.01431      1.99997     3.98573    0.00000     5.98569
      C    3    0.14176      1.99989     3.85835    0.00000     5.85824
      C    4   -0.06720      1.99995     4.06725    0.00000     6.06720
      C    5   -0.01808      1.99995     4.01812    0.00000     6.01808
      C    6   -0.06502      1.99996     4.06506    0.00000     6.06502
      C    7   -0.09114      1.99996     4.09118    0.00000     6.09114
      O    8   -0.33182      1.99999     6.33183    0.00000     8.33182
      C    9    0.01926      1.99996     3.98078    0.00000     5.98074
      C   10   -0.13197      1.99997     4.13200    0.00000     6.13197
      C   11   -0.12873      1.99997     4.12876    0.00000     6.12873
      H   12    0.03422      0.00000     0.96578    0.00000     0.96578
      H   13    0.03666      0.00000     0.96334    0.00000     0.96334
      H   14    0.03612      0.00000     0.96388    0.00000     0.96388
      H   15    0.02458      0.00000     0.97542    0.00000     0.97542
      H   16    0.02446      0.00000     0.97554    0.00000     0.97554
      H   17    0.02626      0.00000     0.97374    0.00000     0.97374
      H   18    0.03310      0.00000     0.96690    0.00000     0.96690
      H   19    0.01572      0.00000     0.98428    0.00000     0.98428
      H   20    0.03157      0.00000     0.96843    0.00000     0.96843
      H   21    0.02791      0.00000     0.97209    0.00000     0.97209
      H   22    0.02308      0.00000     0.97692    0.00000     0.97692
      H   23    0.03697      0.00000     0.96303    0.00000     0.96303
      H   24    0.18767      0.00000     0.81233    0.00000     0.81233
      H   25    0.03069      0.00000     0.96931    0.00000     0.96931
      H   26    0.03524      0.00000     0.96476    0.00000     0.96476
      H   27    0.03622      0.00000     0.96378    0.00000     0.96378
      H   28    0.03816      0.00000     0.96184    0.00000     0.96184
      H   29    0.03450      0.00000     0.96550    0.00000     0.96550
      H   30    0.03432      0.00000     0.96568    0.00000     0.96568
      H   31    0.03700      0.00000     0.96300    0.00000     0.96300
 =======================================================================
   * Total *    0.00000     21.99955    66.00045    0.00000    88.00000

 Normal termination of Gaussian 09 at Sun May 24 02:04:59 2020.
