 Gaussian 09, Revision C.01,
 Gaussian 09:  EM64L-G09RevC.01 23-Sep-2011

 ------------------------
 # rhf/STO-3G nmr pop=nbo
 ------------------------

 99/9=1/99;
 -------
 comment
 -------
 Charge =  0 Multiplicity = 1

                         Standard orientation:
 ---------------------------------------------------------------------
 Center     Atomic      Atomic             Coordinates (Angstroms)
 Number     Number       Type             X           Y           Z
 ---------------------------------------------------------------------
      1          6           0        3.699874   -0.356699    0.028764
      2          6           0        2.219337   -0.248778    0.388389
      3          6           0        0.121378    1.152109    0.131261
      4          6           0       -0.046609   -1.366655    0.186434
      5          6           0       -0.662496   -0.075921   -0.387034
      6          6           0        1.448375   -1.472011   -0.116887
      7          6           0        1.615574    1.037159   -0.180980
      8          8           0       -0.349630    2.348334   -0.483293
      9          6           0       -2.200179    0.034345   -0.154977
     10          6           0       -2.605255    0.123014    1.318739
     11          6           0       -2.964158   -1.113059   -0.827015
     12          1           0        3.845329   -0.393923   -1.056210
     13          1           0        4.256863    0.503103    0.415700
     14          1           0        4.139085   -1.262180    0.460513
     15          1           0        2.139666   -0.215263    1.483115
     16          1           0        0.003242    1.261265    1.215442
     17          1           0       -0.541251   -2.248910   -0.232962
     18          1           0       -0.188945   -1.404587    1.272756
     19          1           0       -0.528249   -0.101526   -1.479056
     20          1           0        1.588916   -1.582958   -1.199823
     21          1           0        1.846335   -2.381860    0.348401
     22          1           0        1.767380    1.082808   -1.268095
     23          1           0        2.138481    1.913211    0.224008
     24          1           0       -1.208507    2.567204   -0.084705
     25          1           0       -2.545899    0.954485   -0.643335
     26          1           0       -2.321633   -0.776315    1.873777
     27          1           0       -2.151447    0.988394    1.809643
     28          1           0       -3.691510    0.235599    1.409673
     29          1           0       -2.793022   -2.069384   -0.323121
     30          1           0       -2.670512   -1.217528   -1.876609
     31          1           0       -4.042328   -0.919324   -0.802936
 ---------------------------------------------------------------------

 SCF Done:  E(RHF) =  -459.622630019     A.U. after   10 cycles

      1  C    Isotropic =   221.1352   Anisotropy =    28.4257

      2  C    Isotropic =   215.1149   Anisotropy =     8.0161

      3  C    Isotropic =   188.2057   Anisotropy =    41.0791

      4  C    Isotropic =   219.0906   Anisotropy =    13.9055

      5  C    Isotropic =   208.8565   Anisotropy =    14.1127

      6  C    Isotropic =   215.5792   Anisotropy =    17.3162

      7  C    Isotropic =   214.9835   Anisotropy =    21.2849

      8  O    Isotropic =   365.5023   Anisotropy =    69.4114

      9  C    Isotropic =   215.5395   Anisotropy =    12.4321

     10  C    Isotropic =   224.8235   Anisotropy =    20.3687

     11  C    Isotropic =   221.4461   Anisotropy =    26.1390

     12  H    Isotropic =    32.5937   Anisotropy =    11.7023

     13  H    Isotropic =    32.3868   Anisotropy =    13.8219

     14  H    Isotropic =    32.4382   Anisotropy =    13.8384

     15  H    Isotropic =    32.8660   Anisotropy =    10.6895

     16  H    Isotropic =    32.2054   Anisotropy =     6.8284

     17  H    Isotropic =    32.4834   Anisotropy =    12.5530

     18  H    Isotropic =    32.9697   Anisotropy =     9.8184

     19  H    Isotropic =    32.4244   Anisotropy =     9.0398

     20  H    Isotropic =    32.7578   Anisotropy =    11.0733

     21  H    Isotropic =    32.4402   Anisotropy =    13.9127

     22  H    Isotropic =    32.3615   Anisotropy =    10.5213

     23  H    Isotropic =    31.9355   Anisotropy =    13.3390

     24  H    Isotropic =    34.5185   Anisotropy =    16.8265

     25  H    Isotropic =    32.5863   Anisotropy =    11.4505

     26  H    Isotropic =    32.7885   Anisotropy =    10.0399

     27  H    Isotropic =    32.9254   Anisotropy =    10.9466

     28  H    Isotropic =    32.6875   Anisotropy =    14.5709

     29  H    Isotropic =    32.5570   Anisotropy =    10.0093

     30  H    Isotropic =    32.5002   Anisotropy =    12.6346

     31  H    Isotropic =    32.4591   Anisotropy =    14.5643

 The electronic state is 1-A.
 Alpha  occ. eigenvalues --  -20.23673 -11.08335 -11.05025 -11.04637 -11.04103
 Alpha  occ. eigenvalues --  -11.03656 -11.03604 -11.03583 -11.03433 -11.03270
 Alpha  occ. eigenvalues --  -11.03061  -1.27744  -1.08282  -1.04049  -0.96939
 Alpha  occ. eigenvalues --   -0.94722  -0.89384  -0.87775  -0.79884  -0.77493
 Alpha  occ. eigenvalues --   -0.73378  -0.70817  -0.61683  -0.60953  -0.59497
 Alpha  occ. eigenvalues --   -0.57732  -0.56677  -0.54703  -0.53195  -0.52685
 Alpha  occ. eigenvalues --   -0.51322  -0.50408  -0.49311  -0.47497  -0.47292
 Alpha  occ. eigenvalues --   -0.45452  -0.43691  -0.43096  -0.42316  -0.41364
 Alpha  occ. eigenvalues --   -0.40496  -0.38159  -0.37212  -0.32855
 Alpha virt. eigenvalues --    0.53432   0.55142   0.57823   0.58223   0.60900
 Alpha virt. eigenvalues --    0.61559   0.63251   0.65601   0.65840   0.67571
 Alpha virt. eigenvalues --    0.69040   0.69654   0.70438   0.71685   0.72192

 Mulliken atomic charges:
              1
     1  C   -0.171612
     2  C   -0.023678
     3  C    0.076741
     4  C   -0.104066
     5  C   -0.040367
     6  C   -0.098856
     7  C   -0.104659
     8  O   -0.313440
     9  C   -0.024071
    10  C   -0.177356
    11  C   -0.172417
    12  H    0.054114
    13  H    0.054464
    14  H    0.053593
    15  H    0.045883
    16  H    0.038656
    17  H    0.052492
    18  H    0.046647
    19  H    0.050274
    20  H    0.048205
    21  H    0.049972
    22  H    0.055785
    23  H    0.056412
    24  H    0.177214
    25  H    0.046121
    26  H    0.056175
    27  H    0.048988
    28  H    0.055736
    29  H    0.054260
    30  H    0.054700
    31  H    0.054089
 Sum of Mulliken atomic charges =   0.00000

 Dipole moment (field-independent basis, Debye):
    X=             -0.6378    Y=             -0.8410    Z=              0.9338  Tot=              1.4093
 Quadrupole moment (field-independent basis, Debye-Ang):
   XX=            -66.3329   YY=            -70.4877   ZZ=            -67.8261
   XY=             -2.0109   XZ=             -0.1711   YZ=              2.4745

 Summary of Natural Population Analysis:

                                       Natural Population
                Natural  -----------------------------------------------
    Atom  No    Charge         Core      Valence    Rydberg      Total
 -----------------------------------------------------------------------
      C    1   -0.12679      1.99997     4.12682    0.00000     6.12679
      C    2    0.01440      1.99997     3.98563    0.00000     5.98560
      C    3    0.14439      1.99989     3.85573    0.00000     5.85561
      C    4   -0.06624      1.99996     4.06628    0.00000     6.06624
      C    5   -0.02010      1.99995     4.02014    0.00000     6.02010
      C    6   -0.06128      1.99996     4.06132    0.00000     6.06128
      C    7   -0.08118      1.99996     4.08122    0.00000     6.08118
      O    8   -0.33444      1.99999     6.33445    0.00000     8.33444
      C    9    0.01718      1.99996     3.98286    0.00000     5.98282
      C   10   -0.13341      1.99997     4.13344    0.00000     6.13341
      C   11   -0.12800      1.99997     4.12803    0.00000     6.12800
      H   12    0.03677      0.00000     0.96323    0.00000     0.96323
      H   13    0.03714      0.00000     0.96286    0.00000     0.96286
      H   14    0.03636      0.00000     0.96364    0.00000     0.96364
      H   15    0.02199      0.00000     0.97801    0.00000     0.97801
      H   16    0.00340      0.00000     0.99660    0.00000     0.99660
      H   17    0.03137      0.00000     0.96863    0.00000     0.96863
      H   18    0.02580      0.00000     0.97420    0.00000     0.97420
      H   19    0.02484      0.00000     0.97516    0.00000     0.97516
      H   20    0.02737      0.00000     0.97263    0.00000     0.97263
      H   21    0.02929      0.00000     0.97071    0.00000     0.97071
      H   22    0.03480      0.00000     0.96520    0.00000     0.96520
      H   23    0.03541      0.00000     0.96459    0.00000     0.96459
      H   24    0.18961      0.00000     0.81039    0.00000     0.81039
      H   25    0.02109      0.00000     0.97891    0.00000     0.97891
      H   26    0.03878      0.00000     0.96122    0.00000     0.96122
      H   27    0.03213      0.00000     0.96787    0.00000     0.96787
      H   28    0.03870      0.00000     0.96130    0.00000     0.96130
      H   29    0.03663      0.00000     0.96337    0.00000     0.96337
      H   30    0.03717      0.00000     0.96283    0.00000     0.96283
      H   31    0.03679      0.00000     0.96321    0.00000     0.96321
 =======================================================================
   * Total *    0.00000     21.99955    66.00045    0.00000    88.00000

 Normal termination of Gaussian 09 at Tue Aug  3 16:32:03 2021.
