 Gaussian 09, Revision C.01,
 Gaussian 09:  EM64L-G09RevC.01 23-Sep-2011

 ------------------------
 # rhf/STO-3G nmr pop=nbo
 ------------------------

 99/9=1/99;
 -------
 comment
 -------
 Charge =  0 Multiplicity = 1

                         Standard orientation:
 ---------------------------------------------------------------------
 Center     Atomic      Atomic             Coordinates (Angstroms)
 Number     Number       Type             X           Y           Z
 ---------------------------------------------------------------------
      1          6           0       -3.753459   -0.144380    0.070140
      2          6           0       -2.285224   -0.194280   -0.347960
      3          6           0       -0.068780    1.052639   -0.285949
      4          6           0       -0.126348   -1.483601   -0.162516
      5          6           0        0.675133   -0.214627    0.207846
      6          6           0       -1.594745   -1.420040    0.245337
      7          6           0       -1.552547    1.068838    0.094351
      8          8           0        0.511463    2.219792    0.294417
      9          6           0        2.142143   -0.322491   -0.339966
     10          6           0        2.863862   -1.572400    0.188497
     11          6           0        3.015947    0.896318   -0.021993
     12          1           0       -4.283266   -1.041800   -0.266278
     13          1           0       -3.857070   -0.078254    1.158568
     14          1           0       -4.253112    0.724597   -0.370833
     15          1           0       -2.246620   -0.260123   -1.443230
     16          1           0        0.032338    1.131805   -1.375327
     17          1           0        0.308395   -2.363106    0.324157
     18          1           0       -0.063553   -1.653335   -1.245107
     19          1           0        0.739898   -0.157803    1.303969
     20          1           0       -1.666249   -1.402421    1.340456
     21          1           0       -2.100318   -2.333563   -0.090276
     22          1           0       -1.646861    1.201600    1.181140
     23          1           0       -2.028220    1.954018   -0.347829
     24          1           0        0.063420    2.993368   -0.088258
     25          1           0        2.094790   -0.410945   -1.433676
     26          1           0        2.844577   -1.606342    1.282915
     27          1           0        2.412508   -2.491720   -0.195473
     28          1           0        3.911851   -1.586192   -0.131178
     29          1           0        2.982066    1.143201    1.044180
     30          1           0        2.705400    1.771140   -0.600110
     31          1           0        4.062440    0.711687   -0.289869
 ---------------------------------------------------------------------

 SCF Done:  E(RHF) =  -459.619522556     A.U. after   10 cycles

      1  C    Isotropic =   221.1084   Anisotropy =    28.3772

      2  C    Isotropic =   215.7529   Anisotropy =     7.8809

      3  C    Isotropic =   187.0962   Anisotropy =    36.9174

      4  C    Isotropic =   216.5087   Anisotropy =    16.8213

      5  C    Isotropic =   208.3328   Anisotropy =    16.0499

      6  C    Isotropic =   216.0117   Anisotropy =    17.3234

      7  C    Isotropic =   213.5008   Anisotropy =    24.5755

      8  O    Isotropic =   352.6395   Anisotropy =    84.4509

      9  C    Isotropic =   211.0537   Anisotropy =    18.5842

     10  C    Isotropic =   220.6865   Anisotropy =    26.2183

     11  C    Isotropic =   220.5567   Anisotropy =    24.3242

     12  H    Isotropic =    32.4546   Anisotropy =    13.8243

     13  H    Isotropic =    32.6487   Anisotropy =    11.6242

     14  H    Isotropic =    32.5120   Anisotropy =    13.6612

     15  H    Isotropic =    32.9370   Anisotropy =    10.8251

     16  H    Isotropic =    32.1961   Anisotropy =     7.3169

     17  H    Isotropic =    32.1977   Anisotropy =    12.4875

     18  H    Isotropic =    32.8758   Anisotropy =    10.2791

     19  H    Isotropic =    32.5005   Anisotropy =     8.2992

     20  H    Isotropic =    32.7589   Anisotropy =    10.9497

     21  H    Isotropic =    32.4409   Anisotropy =    13.9787

     22  H    Isotropic =    32.4345   Anisotropy =     9.8246

     23  H    Isotropic =    32.7289   Anisotropy =    12.4479

     24  H    Isotropic =    34.9373   Anisotropy =    18.9650

     25  H    Isotropic =    32.6673   Anisotropy =     9.7377

     26  H    Isotropic =    32.5257   Anisotropy =    11.0849

     27  H    Isotropic =    32.3363   Anisotropy =    11.0298

     28  H    Isotropic =    32.4972   Anisotropy =    14.2031

     29  H    Isotropic =    32.2250   Anisotropy =    10.4311

     30  H    Isotropic =    31.8541   Anisotropy =    10.3882

     31  H    Isotropic =    32.5629   Anisotropy =    14.2643

 The electronic state is 1-A.
 Alpha  occ. eigenvalues --  -20.23534 -11.08518 -11.04769 -11.04379 -11.04155
 Alpha  occ. eigenvalues --  -11.03695 -11.03651 -11.03609 -11.03243 -11.02529
 Alpha  occ. eigenvalues --  -11.01735  -1.27719  -1.08160  -1.03416  -0.96775
 Alpha  occ. eigenvalues --   -0.94678  -0.88027  -0.87770  -0.79204  -0.77090
 Alpha  occ. eigenvalues --   -0.72898  -0.72146  -0.61344  -0.60585  -0.58832
 Alpha  occ. eigenvalues --   -0.56938  -0.56426  -0.55446  -0.52906  -0.51024
 Alpha  occ. eigenvalues --   -0.50417  -0.49745  -0.49421  -0.47554  -0.46945
 Alpha  occ. eigenvalues --   -0.44619  -0.44292  -0.43228  -0.42029  -0.41201
 Alpha  occ. eigenvalues --   -0.39577  -0.38222  -0.36644  -0.32697
 Alpha virt. eigenvalues --    0.52988   0.54667   0.57120   0.59853   0.61320
 Alpha virt. eigenvalues --    0.62037   0.62541   0.65778   0.67489   0.68330
 Alpha virt. eigenvalues --    0.69355   0.70174   0.70790   0.72711   0.73006

 Mulliken atomic charges:
              1
     1  C   -0.171771
     2  C   -0.023929
     3  C    0.076999
     4  C   -0.102173
     5  C   -0.031384
     6  C   -0.099353
     7  C   -0.112510
     8  O   -0.312763
     9  C   -0.017436
    10  C   -0.173541
    11  C   -0.171368
    12  H    0.054014
    13  H    0.053896
    14  H    0.052861
    15  H    0.046144
    16  H    0.037651
    17  H    0.054789
    18  H    0.046190
    19  H    0.052089
    20  H    0.048710
    21  H    0.050465
    22  H    0.055318
    23  H    0.043787
    24  H    0.175542
    25  H    0.042091
    26  H    0.052304
    27  H    0.052261
    28  H    0.053809
    29  H    0.057628
    30  H    0.061332
    31  H    0.048348
 Sum of Mulliken atomic charges =   0.00000

 Dipole moment (field-independent basis, Debye):
    X=             -1.0807    Y=             -0.1164    Z=             -0.8892  Tot=              1.4043
 Quadrupole moment (field-independent basis, Debye-Ang):
   XX=            -69.3943   YY=            -66.3710   ZZ=            -67.0330
   XY=             -2.4600   XZ=             -0.3811   YZ=             -2.2830

 Summary of Natural Population Analysis:

                                       Natural Population
                Natural  -----------------------------------------------
    Atom  No    Charge         Core      Valence    Rydberg      Total
 -----------------------------------------------------------------------
      C    1   -0.12660      1.99997     4.12662    0.00000     6.12660
      C    2    0.01337      1.99997     3.98666    0.00000     5.98663
      C    3    0.14521      1.99989     3.85490    0.00000     5.85479
      C    4   -0.06479      1.99996     4.06484    0.00000     6.06479
      C    5   -0.00753      1.99995     4.00758    0.00000     6.00753
      C    6   -0.06288      1.99997     4.06291    0.00000     6.06288
      C    7   -0.08942      1.99996     4.08945    0.00000     6.08942
      O    8   -0.33420      1.99999     6.33421    0.00000     8.33420
      C    9    0.02506      1.99996     3.97499    0.00000     5.97494
      C   10   -0.12935      1.99997     4.12939    0.00000     6.12935
      C   11   -0.12865      1.99997     4.12868    0.00000     6.12865
      H   12    0.03674      0.00000     0.96326    0.00000     0.96326
      H   13    0.03659      0.00000     0.96341    0.00000     0.96341
      H   14    0.03565      0.00000     0.96435    0.00000     0.96435
      H   15    0.02264      0.00000     0.97736    0.00000     0.97736
      H   16    0.00189      0.00000     0.99811    0.00000     0.99811
      H   17    0.03344      0.00000     0.96656    0.00000     0.96656
      H   18    0.02527      0.00000     0.97473    0.00000     0.97473
      H   19    0.02547      0.00000     0.97453    0.00000     0.97453
      H   20    0.02822      0.00000     0.97178    0.00000     0.97178
      H   21    0.03010      0.00000     0.96990    0.00000     0.96990
      H   22    0.03464      0.00000     0.96536    0.00000     0.96536
      H   23    0.02426      0.00000     0.97574    0.00000     0.97574
      H   24    0.18806      0.00000     0.81194    0.00000     0.81194
      H   25    0.01631      0.00000     0.98369    0.00000     0.98369
      H   26    0.03492      0.00000     0.96508    0.00000     0.96508
      H   27    0.03463      0.00000     0.96537    0.00000     0.96537
      H   28    0.03655      0.00000     0.96345    0.00000     0.96345
      H   29    0.03997      0.00000     0.96003    0.00000     0.96003
      H   30    0.04300      0.00000     0.95700    0.00000     0.95700
      H   31    0.03143      0.00000     0.96857    0.00000     0.96857
 =======================================================================
   * Total *    0.00000     21.99956    66.00044    0.00000    88.00000

 Normal termination of Gaussian 09 at Tue Aug  3 16:33:42 2021.
