 Gaussian 09, Revision C.01,
 Gaussian 09:  EM64L-G09RevC.01 23-Sep-2011

 ------------------------
 # rhf/STO-3G nmr pop=nbo
 ------------------------

 99/9=1/99;
 -------
 comment
 -------
 Charge =  0 Multiplicity = 1

                         Standard orientation:
 ---------------------------------------------------------------------
 Center     Atomic      Atomic             Coordinates (Angstroms)
 Number     Number       Type             X           Y           Z
 ---------------------------------------------------------------------
      1          6           0        3.392511   -0.715840   -0.398959
      2          6           0        2.193604   -0.287935    0.448923
      3          6           0        0.151567    1.200454    0.256122
      4          6           0        0.053484   -1.221219   -0.578692
      5          6           0       -0.674304    0.140605   -0.510089
      6          6           0        1.118746   -1.387087    0.502499
      7          6           0        1.639547    1.054114   -0.052731
      8          8           0       -0.288213    2.498375   -0.138659
      9          6           0       -2.138997    0.062356    0.017034
     10          6           0       -2.272351   -0.591289    1.395564
     11          6           0       -3.057184   -0.653720   -0.981668
     12          1           0        3.846806   -1.627747    0.002738
     13          1           0        3.099179   -0.912757   -1.435529
     14          1           0        4.160943    0.064511   -0.405287
     15          1           0        2.560572   -0.145318    1.474233
     16          1           0       -0.003255    1.120791    1.337030
     17          1           0        0.543035   -1.302805   -1.558303
     18          1           0       -0.647481   -2.060073   -0.530960
     19          1           0       -0.759851    0.498188   -1.547758
     20          1           0        1.576863   -2.380187    0.424782
     21          1           0        0.630146   -1.356936    1.484654
     22          1           0        1.790488    1.163059   -1.135481
     23          1           0        2.205534    1.879400    0.397767
     24          1           0        0.237207    3.149314    0.357049
     25          1           0       -2.518389    1.089119    0.105750
     26          1           0       -1.968145   -1.642383    1.380263
     27          1           0       -1.672519   -0.073396    2.148758
     28          1           0       -3.314196   -0.557406    1.733528
     29          1           0       -2.799903   -1.711337   -1.092460
     30          1           0       -3.000978   -0.183815   -1.969161
     31          1           0       -4.100082   -0.599849   -0.650356
 ---------------------------------------------------------------------

 SCF Done:  E(RHF) =  -459.612327747     A.U. after   10 cycles

      1  C    Isotropic =   221.0518   Anisotropy =    27.0373

      2  C    Isotropic =   216.4958   Anisotropy =     9.5194

      3  C    Isotropic =   189.2196   Anisotropy =    42.7770

      4  C    Isotropic =   220.5923   Anisotropy =    15.8352

      5  C    Isotropic =   209.4776   Anisotropy =    17.3143

      6  C    Isotropic =   217.6018   Anisotropy =    15.0549

      7  C    Isotropic =   214.3852   Anisotropy =    23.5882

      8  O    Isotropic =   354.4859   Anisotropy =    89.9915

      9  C    Isotropic =   213.7343   Anisotropy =    15.6360

     10  C    Isotropic =   224.4348   Anisotropy =    19.7333

     11  C    Isotropic =   221.1817   Anisotropy =    27.3173

     12  H    Isotropic =    32.5641   Anisotropy =    14.1903

     13  H    Isotropic =    32.5487   Anisotropy =    10.1841

     14  H    Isotropic =    32.4644   Anisotropy =    13.8876

     15  H    Isotropic =    32.4804   Anisotropy =    13.4362

     16  H    Isotropic =    32.0991   Anisotropy =     6.4423

     17  H    Isotropic =    32.4741   Anisotropy =    12.3888

     18  H    Isotropic =    32.5528   Anisotropy =    11.8422

     19  H    Isotropic =    32.0056   Anisotropy =    10.4017

     20  H    Isotropic =    32.6854   Anisotropy =    13.8012

     21  H    Isotropic =    32.6896   Anisotropy =    10.6358

     22  H    Isotropic =    32.4512   Anisotropy =     9.8869

     23  H    Isotropic =    32.6746   Anisotropy =    13.3288

     24  H    Isotropic =    35.0065   Anisotropy =    19.4456

     25  H    Isotropic =    31.9372   Anisotropy =    11.5531

     26  H    Isotropic =    32.7929   Anisotropy =     9.1163

     27  H    Isotropic =    32.5841   Anisotropy =    10.2402

     28  H    Isotropic =    32.5458   Anisotropy =    14.9177

     29  H    Isotropic =    32.5235   Anisotropy =    10.0684

     30  H    Isotropic =    32.4250   Anisotropy =    13.0097

     31  H    Isotropic =    32.3985   Anisotropy =    14.6681

 The electronic state is 1-A.
 Alpha  occ. eigenvalues --  -20.23661 -11.08399 -11.04752 -11.04132 -11.04064
 Alpha  occ. eigenvalues --  -11.03675 -11.03616 -11.03585 -11.03237 -11.02768
 Alpha  occ. eigenvalues --  -11.02592  -1.27733  -1.08199  -1.03455  -0.96457
 Alpha  occ. eigenvalues --   -0.94718  -0.88778  -0.87918  -0.81054  -0.77520
 Alpha  occ. eigenvalues --   -0.72396  -0.68425  -0.63748  -0.61273  -0.58395
 Alpha  occ. eigenvalues --   -0.57780  -0.57350  -0.53518  -0.53086  -0.51013
 Alpha  occ. eigenvalues --   -0.50563  -0.50222  -0.49276  -0.48512  -0.47467
 Alpha  occ. eigenvalues --   -0.45552  -0.44354  -0.42687  -0.41859  -0.40950
 Alpha  occ. eigenvalues --   -0.39143  -0.38653  -0.36315  -0.33047
 Alpha virt. eigenvalues --    0.53230   0.55468   0.57230   0.60104   0.60832
 Alpha virt. eigenvalues --    0.61174   0.62014   0.65351   0.65502   0.66175
 Alpha virt. eigenvalues --    0.68470   0.68790   0.69576   0.71089   0.71701

 Mulliken atomic charges:
              1
     1  C   -0.170765
     2  C   -0.024596
     3  C    0.077337
     4  C   -0.104243
     5  C   -0.033296
     6  C   -0.102177
     7  C   -0.114428
     8  O   -0.313321
     9  C   -0.019881
    10  C   -0.176192
    11  C   -0.173102
    12  H    0.053204
    13  H    0.052976
    14  H    0.053430
    15  H    0.046778
    16  H    0.039399
    17  H    0.048591
    18  H    0.054420
    19  H    0.056092
    20  H    0.051998
    21  H    0.048180
    22  H    0.054680
    23  H    0.044971
    24  H    0.175884
    25  H    0.057717
    26  H    0.052217
    27  H    0.051454
    28  H    0.054317
    29  H    0.051128
    30  H    0.053971
    31  H    0.053256
 Sum of Mulliken atomic charges =   0.00000

 Dipole moment (field-independent basis, Debye):
    X=              0.9912    Y=             -0.3122    Z=              0.8460  Tot=              1.3400
 Quadrupole moment (field-independent basis, Debye-Ang):
   XX=            -68.1665   YY=            -67.4871   ZZ=            -67.3898
   XY=              2.7835   XZ=              0.0443   YZ=              2.7300

 Summary of Natural Population Analysis:

                                       Natural Population
                Natural  -----------------------------------------------
    Atom  No    Charge         Core      Valence    Rydberg      Total
 -----------------------------------------------------------------------
      C    1   -0.12577      1.99997     4.12579    0.00000     6.12577
      C    2    0.01456      1.99997     3.98548    0.00000     5.98544
      C    3    0.14502      1.99989     3.85509    0.00000     5.85498
      C    4   -0.06686      1.99995     4.06691    0.00000     6.06686
      C    5   -0.01156      1.99995     4.01162    0.00000     6.01156
      C    6   -0.06476      1.99996     4.06480    0.00000     6.06476
      C    7   -0.09125      1.99996     4.09128    0.00000     6.09125
      O    8   -0.33429      1.99999     6.33430    0.00000     8.33429
      C    9    0.01988      1.99996     3.98016    0.00000     5.98012
      C   10   -0.13209      1.99997     4.13212    0.00000     6.13209
      C   11   -0.12857      1.99997     4.12860    0.00000     6.12857
      H   12    0.03580      0.00000     0.96420    0.00000     0.96420
      H   13    0.03555      0.00000     0.96445    0.00000     0.96445
      H   14    0.03608      0.00000     0.96392    0.00000     0.96392
      H   15    0.02249      0.00000     0.97751    0.00000     0.97751
      H   16    0.00362      0.00000     0.99638    0.00000     0.99638
      H   17    0.02776      0.00000     0.97224    0.00000     0.97224
      H   18    0.03333      0.00000     0.96667    0.00000     0.96667
      H   19    0.03025      0.00000     0.96975    0.00000     0.96975
      H   20    0.03136      0.00000     0.96864    0.00000     0.96864
      H   21    0.02730      0.00000     0.97270    0.00000     0.97270
      H   22    0.03389      0.00000     0.96611    0.00000     0.96611
      H   23    0.02546      0.00000     0.97454    0.00000     0.97454
      H   24    0.18839      0.00000     0.81161    0.00000     0.81161
      H   25    0.03148      0.00000     0.96852    0.00000     0.96852
      H   26    0.03499      0.00000     0.96501    0.00000     0.96501
      H   27    0.03430      0.00000     0.96570    0.00000     0.96570
      H   28    0.03741      0.00000     0.96259    0.00000     0.96259
      H   29    0.03367      0.00000     0.96633    0.00000     0.96633
      H   30    0.03649      0.00000     0.96351    0.00000     0.96351
      H   31    0.03606      0.00000     0.96394    0.00000     0.96394
 =======================================================================
   * Total *    0.00000     21.99954    66.00046    0.00000    88.00000

 Normal termination of Gaussian 09 at Sun May 24 02:04:30 2020.
