 Gaussian 09, Revision C.01,
 Gaussian 09:  EM64L-G09RevC.01 23-Sep-2011

 ------------------------
 # rhf/STO-3G nmr pop=nbo
 ------------------------

 99/9=1/99;
 -------
 comment
 -------
 Charge =  0 Multiplicity = 1

                         Standard orientation:
 ---------------------------------------------------------------------
 Center     Atomic      Atomic             Coordinates (Angstroms)
 Number     Number       Type             X           Y           Z
 ---------------------------------------------------------------------
      1          6           0        3.701486   -0.165315    0.392925
      2          6           0        2.176498   -0.215523    0.452873
      3          6           0        0.135188    1.008750   -0.527560
      4          6           0        0.098160   -1.478335   -0.280412
      5          6           0       -0.626095   -0.169550    0.124199
      6          6           0        1.622724   -1.356258   -0.397316
      7          6           0        1.565568    1.126175    0.023381
      8          8           0       -0.491999    2.267373   -0.335408
      9          6           0       -2.158386   -0.201803   -0.185333
     10          6           0       -2.946216    0.781103    0.697378
     11          6           0       -2.790930   -1.588512    0.016059
     12          1           0        4.087493    0.646529    1.018320
     13          1           0        4.134874   -1.103447    0.755280
     14          1           0        4.055240   -0.003593   -0.630977
     15          1           0        1.895536   -0.402675    1.498189
     16          1           0        0.191778    0.841837   -1.611532
     17          1           0       -0.276913   -1.841459   -1.245131
     18          1           0       -0.134653   -2.253059    0.460835
     19          1           0       -0.531725   -0.063378    1.214839
     20          1           0        1.887921   -1.187792   -1.449603
     21          1           0        2.083265   -2.310755   -0.115223
     22          1           0        2.184250    1.606461   -0.746538
     23          1           0        1.590646    1.815833    0.877817
     24          1           0       -1.217793    2.332118   -0.979146
     25          1           0       -2.310207    0.079958   -1.235093
     26          1           0       -2.819729    0.542541    1.759274
     27          1           0       -2.647668    1.819581    0.551606
     28          1           0       -4.017260    0.729398    0.470653
     29          1           0       -2.606700   -1.964729    1.028125
     30          1           0       -2.404681   -2.318694   -0.700964
     31          1           0       -3.875655   -1.548053   -0.134632
 ---------------------------------------------------------------------

 SCF Done:  E(RHF) =  -459.609601545     A.U. after   10 cycles

      1  C    Isotropic =   221.2412   Anisotropy =    27.7486

      2  C    Isotropic =   216.8274   Anisotropy =    10.4393

      3  C    Isotropic =   186.4498   Anisotropy =    40.1868

      4  C    Isotropic =   217.3550   Anisotropy =    17.1742

      5  C    Isotropic =   209.9416   Anisotropy =    18.4051

      6  C    Isotropic =   217.2972   Anisotropy =    18.2275

      7  C    Isotropic =   214.8863   Anisotropy =    25.2914

      8  O    Isotropic =   366.6396   Anisotropy =    85.6090

      9  C    Isotropic =   213.2260   Anisotropy =    15.8654

     10  C    Isotropic =   220.0854   Anisotropy =    28.5445

     11  C    Isotropic =   221.5571   Anisotropy =    23.3708

     12  H    Isotropic =    32.3172   Anisotropy =    13.6431

     13  H    Isotropic =    32.4896   Anisotropy =    13.9791

     14  H    Isotropic =    32.6855   Anisotropy =    11.7646

     15  H    Isotropic =    32.5463   Anisotropy =    10.3377

     16  H    Isotropic =    32.0956   Anisotropy =     7.5160

     17  H    Isotropic =    32.6160   Anisotropy =    11.0761

     18  H    Isotropic =    32.3390   Anisotropy =    11.8398

     19  H    Isotropic =    32.5273   Anisotropy =     7.2645

     20  H    Isotropic =    32.7740   Anisotropy =    11.2828

     21  H    Isotropic =    32.4521   Anisotropy =    13.8703

     22  H    Isotropic =    32.1498   Anisotropy =    12.2662

     23  H    Isotropic =    31.8481   Anisotropy =    12.0827

     24  H    Isotropic =    34.6557   Anisotropy =    16.9698

     25  H    Isotropic =    33.0340   Anisotropy =    10.0418

     26  H    Isotropic =    32.5169   Anisotropy =    11.2757

     27  H    Isotropic =    32.2255   Anisotropy =    10.2776

     28  H    Isotropic =    32.5926   Anisotropy =    14.3384

     29  H    Isotropic =    32.5794   Anisotropy =    10.8420

     30  H    Isotropic =    32.4642   Anisotropy =    10.9441

     31  H    Isotropic =    32.5880   Anisotropy =    14.1187

 The electronic state is 1-A.
 Alpha  occ. eigenvalues --  -20.24008 -11.08523 -11.04987 -11.04557 -11.04034
 Alpha  occ. eigenvalues --  -11.03557 -11.03505 -11.03335 -11.03123 -11.03114
 Alpha  occ. eigenvalues --  -11.02728  -1.28105  -1.08117  -1.03690  -0.96854
 Alpha  occ. eigenvalues --   -0.94500  -0.88666  -0.87731  -0.79271  -0.78204
 Alpha  occ. eigenvalues --   -0.74059  -0.68808  -0.64241  -0.60209  -0.58527
 Alpha  occ. eigenvalues --   -0.57554  -0.56517  -0.54354  -0.53178  -0.52016
 Alpha  occ. eigenvalues --   -0.50572  -0.50242  -0.48963  -0.47803  -0.46472
 Alpha  occ. eigenvalues --   -0.45743  -0.43836  -0.43144  -0.42432  -0.40991
 Alpha  occ. eigenvalues --   -0.40359  -0.38220  -0.37059  -0.32440
 Alpha virt. eigenvalues --    0.52949   0.54471   0.56782   0.59420   0.61233
 Alpha virt. eigenvalues --    0.61726   0.62551   0.65048   0.65905   0.66635
 Alpha virt. eigenvalues --    0.66979   0.68266   0.70788   0.71597   0.72440

 Mulliken atomic charges:
              1
     1  C   -0.171058
     2  C   -0.023737
     3  C    0.079687
     4  C   -0.102518
     5  C   -0.040980
     6  C   -0.101732
     7  C   -0.106446
     8  O   -0.312378
     9  C   -0.021873
    10  C   -0.176507
    11  C   -0.172150
    12  H    0.055181
    13  H    0.053710
    14  H    0.053054
    15  H    0.047787
    16  H    0.036189
    17  H    0.047677
    18  H    0.050107
    19  H    0.048324
    20  H    0.045816
    21  H    0.051368
    22  H    0.052052
    23  H    0.061258
    24  H    0.179114
    25  H    0.038811
    26  H    0.054066
    27  H    0.061666
    28  H    0.051217
    29  H    0.053555
    30  H    0.054576
    31  H    0.054165
 Sum of Mulliken atomic charges =   0.00000

 Dipole moment (field-independent basis, Debye):
    X=             -0.3052    Y=             -0.9847    Z=             -0.8432  Tot=              1.3318
 Quadrupole moment (field-independent basis, Debye-Ang):
   XX=            -66.8898   YY=            -71.5976   ZZ=            -65.6064
   XY=             -0.9450   XZ=              1.4167   YZ=             -2.0700

 Summary of Natural Population Analysis:

                                       Natural Population
                Natural  -----------------------------------------------
    Atom  No    Charge         Core      Valence    Rydberg      Total
 -----------------------------------------------------------------------
      C    1   -0.12602      1.99997     4.12604    0.00000     6.12602
      C    2    0.01389      1.99997     3.98614    0.00000     5.98611
      C    3    0.14703      1.99989     3.85308    0.00000     5.85297
      C    4   -0.06363      1.99995     4.06368    0.00000     6.06363
      C    5   -0.02025      1.99995     4.02029    0.00000     6.02025
      C    6   -0.06496      1.99996     4.06499    0.00000     6.06496
      C    7   -0.08232      1.99995     4.08237    0.00000     6.08232
      O    8   -0.33355      1.99999     6.33356    0.00000     8.33355
      C    9    0.02181      1.99996     3.97823    0.00000     5.97819
      C   10   -0.13246      1.99996     4.13250    0.00000     6.13246
      C   11   -0.12783      1.99997     4.12786    0.00000     6.12783
      H   12    0.03781      0.00000     0.96219    0.00000     0.96219
      H   13    0.03644      0.00000     0.96356    0.00000     0.96356
      H   14    0.03576      0.00000     0.96424    0.00000     0.96424
      H   15    0.02380      0.00000     0.97620    0.00000     0.97620
      H   16    0.00127      0.00000     0.99873    0.00000     0.99873
      H   17    0.02663      0.00000     0.97337    0.00000     0.97337
      H   18    0.02869      0.00000     0.97131    0.00000     0.97131
      H   19    0.02237      0.00000     0.97763    0.00000     0.97763
      H   20    0.02532      0.00000     0.97468    0.00000     0.97468
      H   21    0.03089      0.00000     0.96911    0.00000     0.96911
      H   22    0.03095      0.00000     0.96905    0.00000     0.96905
      H   23    0.03997      0.00000     0.96003    0.00000     0.96003
      H   24    0.19180      0.00000     0.80820    0.00000     0.80820
      H   25    0.01363      0.00000     0.98637    0.00000     0.98637
      H   26    0.03681      0.00000     0.96319    0.00000     0.96319
      H   27    0.04261      0.00000     0.95739    0.00000     0.95739
      H   28    0.03411      0.00000     0.96589    0.00000     0.96589
      H   29    0.03607      0.00000     0.96393    0.00000     0.96393
      H   30    0.03663      0.00000     0.96337    0.00000     0.96337
      H   31    0.03673      0.00000     0.96327    0.00000     0.96327
 =======================================================================
   * Total *    0.00000     21.99954    66.00046    0.00000    88.00000

 Normal termination of Gaussian 09 at Tue Aug  3 16:37:31 2021.
