 Gaussian 09, Revision C.01,
 Gaussian 09:  EM64L-G09RevC.01 23-Sep-2011

 ------------------------
 # rhf/STO-3G nmr pop=nbo
 ------------------------

 99/9=1/99;
 -------
 comment
 -------
 Charge =  0 Multiplicity = 1

                         Standard orientation:
 ---------------------------------------------------------------------
 Center     Atomic      Atomic             Coordinates (Angstroms)
 Number     Number       Type             X           Y           Z
 ---------------------------------------------------------------------
      1          6           0       -3.135304   -0.133845    1.055883
      2          6           0       -2.287776   -0.080324   -0.216215
      3          6           0       -0.001209    0.977368    0.176900
      4          6           0       -0.226847   -1.141342   -1.246881
      5          6           0        0.727642   -0.033189   -0.741752
      6          6           0       -1.431598   -1.350706   -0.334574
      7          6           0       -1.445669    1.202871   -0.272763
      8          8           0        0.672438    2.234622    0.164954
      9          6           0        2.038989   -0.627683   -0.138683
     10          6           0        1.822299   -1.516464    1.089609
     11          6           0        3.079633    0.447838    0.187532
     12          1           0       -3.813031    0.724873    1.107481
     13          1           0       -3.746082   -1.042619    1.077537
     14          1           0       -2.507689   -0.123693    1.953454
     15          1           0       -2.983168   -0.053068   -1.065829
     16          1           0       -0.005877    0.631919    1.215194
     17          1           0        0.305098   -2.088805   -1.389805
     18          1           0       -0.596158   -0.855948   -2.241247
     19          1           0        1.054983    0.514373   -1.638682
     20          1           0       -1.086839   -1.672153    0.655406
     21          1           0       -2.050435   -2.168500   -0.723451
     22          1           0       -1.905290    2.009036    0.312729
     23          1           0       -1.435246    1.578682   -1.305572
     24          1           0        0.664065    2.570961   -0.747347
     25          1           0        2.485496   -1.262984   -0.916590
     26          1           0        1.384839   -0.962084    1.924906
     27          1           0        1.172133   -2.365497    0.861092
     28          1           0        2.776891   -1.929652    1.434653
     29          1           0        2.787071    1.047626    1.054941
     30          1           0        3.233567    1.117562   -0.664753
     31          1           0        4.045194   -0.014150    0.421900
 ---------------------------------------------------------------------

 SCF Done:  E(RHF) =  -459.611306304     A.U. after   10 cycles

      1  C    Isotropic =   220.7388   Anisotropy =    26.9328

      2  C    Isotropic =   216.4358   Anisotropy =     9.4795

      3  C    Isotropic =   191.1969   Anisotropy =    44.5568

      4  C    Isotropic =   216.8660   Anisotropy =    16.9985

      5  C    Isotropic =   207.8735   Anisotropy =     8.6901

      6  C    Isotropic =   217.3414   Anisotropy =    16.5965

      7  C    Isotropic =   215.0287   Anisotropy =    19.8155

      8  O    Isotropic =   345.9424   Anisotropy =    84.0893

      9  C    Isotropic =   211.3512   Anisotropy =    18.4863

     10  C    Isotropic =   224.2266   Anisotropy =    20.1281

     11  C    Isotropic =   221.1423   Anisotropy =    24.7673

     12  H    Isotropic =    32.4640   Anisotropy =    14.2195

     13  H    Isotropic =    32.4601   Anisotropy =    13.9285

     14  H    Isotropic =    32.5821   Anisotropy =     9.6704

     15  H    Isotropic =    32.4417   Anisotropy =    14.0346

     16  H    Isotropic =    31.6790   Anisotropy =     5.9241

     17  H    Isotropic =    32.5216   Anisotropy =    12.1947

     18  H    Isotropic =    32.4222   Anisotropy =    13.2040

     19  H    Isotropic =    32.9018   Anisotropy =    10.6132

     20  H    Isotropic =    32.9863   Anisotropy =     8.5334

     21  H    Isotropic =    32.4400   Anisotropy =    14.6853

     22  H    Isotropic =    32.1960   Anisotropy =    12.7597

     23  H    Isotropic =    32.8236   Anisotropy =    11.5048

     24  H    Isotropic =    35.4561   Anisotropy =    15.7327

     25  H    Isotropic =    32.4711   Anisotropy =    12.5111

     26  H    Isotropic =    32.6616   Anisotropy =     9.0512

     27  H    Isotropic =    32.6209   Anisotropy =    10.0936

     28  H    Isotropic =    32.5203   Anisotropy =    14.8362

     29  H    Isotropic =    32.0701   Anisotropy =     8.9785

     30  H    Isotropic =    32.4736   Anisotropy =    12.0525

     31  H    Isotropic =    32.4633   Anisotropy =    14.9270

 The electronic state is 1-A.
 Alpha  occ. eigenvalues --  -20.23762 -11.08594 -11.04752 -11.04504 -11.04289
 Alpha  occ. eigenvalues --  -11.03802 -11.03762 -11.03635 -11.03213 -11.02908
 Alpha  occ. eigenvalues --  -11.02320  -1.27833  -1.08294  -1.03578  -0.96867
 Alpha  occ. eigenvalues --   -0.94585  -0.88717  -0.87859  -0.80579  -0.78622
 Alpha  occ. eigenvalues --   -0.73074  -0.69202  -0.62417  -0.61368  -0.59410
 Alpha  occ. eigenvalues --   -0.56827  -0.54757  -0.54066  -0.53711  -0.52377
 Alpha  occ. eigenvalues --   -0.51108  -0.50054  -0.49600  -0.48323  -0.47562
 Alpha  occ. eigenvalues --   -0.45681  -0.44211  -0.42998  -0.42101  -0.41635
 Alpha  occ. eigenvalues --   -0.39580  -0.39116  -0.36117  -0.32393
 Alpha virt. eigenvalues --    0.53807   0.54680   0.56992   0.59846   0.60566
 Alpha virt. eigenvalues --    0.61606   0.61995   0.64572   0.65207   0.65508
 Alpha virt. eigenvalues --    0.68046   0.68505   0.70759   0.71308   0.71851

 Mulliken atomic charges:
              1
     1  C   -0.170762
     2  C   -0.024751
     3  C    0.074455
     4  C   -0.102912
     5  C   -0.039906
     6  C   -0.102085
     7  C   -0.114415
     8  O   -0.310972
     9  C   -0.017541
    10  C   -0.176726
    11  C   -0.173450
    12  H    0.053782
    13  H    0.053771
    14  H    0.052588
    15  H    0.047774
    16  H    0.059751
    17  H    0.052842
    18  H    0.046650
    19  H    0.040386
    20  H    0.049971
    21  H    0.051344
    22  H    0.059090
    23  H    0.041833
    24  H    0.175775
    25  H    0.045486
    26  H    0.053290
    27  H    0.053051
    28  H    0.055107
    29  H    0.064382
    30  H    0.051449
    31  H    0.050746
 Sum of Mulliken atomic charges =   0.00000

 Dipole moment (field-independent basis, Debye):
    X=             -0.6285    Y=             -0.7296    Z=             -1.1928  Tot=              1.5330
 Quadrupole moment (field-independent basis, Debye-Ang):
   XX=            -68.4670   YY=            -69.6425   ZZ=            -66.5985
   XY=             -1.6182   XZ=             -0.6558   YZ=             -3.1464

 Summary of Natural Population Analysis:

                                       Natural Population
                Natural  -----------------------------------------------
    Atom  No    Charge         Core      Valence    Rydberg      Total
 -----------------------------------------------------------------------
      C    1   -0.12572      1.99998     4.12574    0.00000     6.12572
      C    2    0.01407      1.99997     3.98597    0.00000     5.98593
      C    3    0.14072      1.99989     3.85939    0.00000     5.85928
      C    4   -0.06521      1.99996     4.06526    0.00000     6.06521
      C    5   -0.01827      1.99995     4.01832    0.00000     6.01827
      C    6   -0.06485      1.99996     4.06489    0.00000     6.06485
      C    7   -0.09116      1.99996     4.09120    0.00000     6.09116
      O    8   -0.33154      1.99999     6.33155    0.00000     8.33154
      C    9    0.02347      1.99996     3.97657    0.00000     5.97653
      C   10   -0.13299      1.99997     4.13302    0.00000     6.13299
      C   11   -0.13026      1.99997     4.13029    0.00000     6.13026
      H   12    0.03634      0.00000     0.96366    0.00000     0.96366
      H   13    0.03636      0.00000     0.96364    0.00000     0.96364
      H   14    0.03521      0.00000     0.96479    0.00000     0.96479
      H   15    0.02349      0.00000     0.97651    0.00000     0.97651
      H   16    0.02435      0.00000     0.97565    0.00000     0.97565
      H   17    0.03182      0.00000     0.96818    0.00000     0.96818
      H   18    0.02591      0.00000     0.97409    0.00000     0.97409
      H   19    0.01592      0.00000     0.98408    0.00000     0.98408
      H   20    0.02889      0.00000     0.97111    0.00000     0.97111
      H   21    0.03086      0.00000     0.96914    0.00000     0.96914
      H   22    0.03817      0.00000     0.96183    0.00000     0.96183
      H   23    0.02225      0.00000     0.97775    0.00000     0.97775
      H   24    0.18798      0.00000     0.81202    0.00000     0.81202
      H   25    0.02025      0.00000     0.97975    0.00000     0.97975
      H   26    0.03601      0.00000     0.96399    0.00000     0.96399
      H   27    0.03571      0.00000     0.96429    0.00000     0.96429
      H   28    0.03820      0.00000     0.96180    0.00000     0.96180
      H   29    0.04582      0.00000     0.95418    0.00000     0.95418
      H   30    0.03443      0.00000     0.96557    0.00000     0.96557
      H   31    0.03380      0.00000     0.96620    0.00000     0.96620
 =======================================================================
   * Total *    0.00000     21.99956    66.00044    0.00000    88.00000

 Normal termination of Gaussian 09 at Tue Aug  3 16:36:36 2021.
