 Gaussian 09, Revision C.01,
 Gaussian 09:  EM64L-G09RevC.01 23-Sep-2011

 ------------------------
 # rhf/STO-3G nmr pop=nbo
 ------------------------

 99/9=1/99;
 -------
 comment
 -------
 Charge =  0 Multiplicity = 1

                         Standard orientation:
 ---------------------------------------------------------------------
 Center     Atomic      Atomic             Coordinates (Angstroms)
 Number     Number       Type             X           Y           Z
 ---------------------------------------------------------------------
      1          6           0       -3.719247    0.141119   -0.078928
      2          6           0       -2.231235   -0.032027   -0.375390
      3          6           0        0.043789    0.819819    0.483752
      4          6           0       -0.244587   -1.594689   -0.214726
      5          6           0        0.589442   -0.305561   -0.416114
      6          6           0       -1.701862   -1.349580    0.186129
      7          6           0       -1.422930    1.156088    0.166443
      8          8           0        0.806203    2.014787    0.368728
      9          6           0        2.108999   -0.622651   -0.278453
     10          6           0        2.582518   -0.757950    1.171588
     11          6           0        2.994445    0.386458   -1.017992
     12          1           0       -4.300136   -0.675951   -0.519599
     13          1           0       -3.912620    0.149292    0.999135
     14          1           0       -4.091343    1.081722   -0.498493
     15          1           0       -2.114446   -0.056412   -1.467445
     16          1           0        0.106003    0.505350    1.532466
     17          1           0        0.207205   -2.250450    0.538136
     18          1           0       -0.223403   -2.162592   -1.154196
     19          1           0        0.434601    0.012066   -1.458058
     20          1           0       -1.776253   -1.336570    1.281532
     21          1           0       -2.314784   -2.192560   -0.154835
     22          1           0       -1.881228    1.550708    1.083244
     23          1           0       -1.482730    1.981279   -0.555629
     24          1           0        0.780859    2.295418   -0.562051
     25          1           0        2.282674   -1.590465   -0.769521
     26          1           0        2.536107    0.197488    1.703894
     27          1           0        1.982861   -1.485792    1.725642
     28          1           0        3.623152   -1.099524    1.202255
     29          1           0        3.016663    1.361664   -0.524790
     30          1           0        2.653733    0.527790   -2.048779
     31          1           0        4.027479    0.023092   -1.060582
 ---------------------------------------------------------------------

 SCF Done:  E(RHF) =  -459.612596309     A.U. after   10 cycles

      1  C    Isotropic =   221.2227   Anisotropy =    27.7648

      2  C    Isotropic =   216.8198   Anisotropy =     9.9349

      3  C    Isotropic =   189.4498   Anisotropy =    42.5918

      4  C    Isotropic =   217.2047   Anisotropy =    21.3327

      5  C    Isotropic =   209.7594   Anisotropy =    14.7314

      6  C    Isotropic =   217.5500   Anisotropy =    17.1526

      7  C    Isotropic =   213.1329   Anisotropy =    27.6870

      8  O    Isotropic =   348.9975   Anisotropy =    89.9156

      9  C    Isotropic =   212.7950   Anisotropy =    17.7196

     10  C    Isotropic =   224.2603   Anisotropy =    20.0147

     11  C    Isotropic =   220.4109   Anisotropy =    27.5468

     12  H    Isotropic =    32.5184   Anisotropy =    13.9883

     13  H    Isotropic =    32.6806   Anisotropy =    11.7765

     14  H    Isotropic =    32.4142   Anisotropy =    13.5396

     15  H    Isotropic =    32.7477   Anisotropy =    10.4127

     16  H    Isotropic =    31.5086   Anisotropy =     7.2797

     17  H    Isotropic =    32.4714   Anisotropy =    11.3204

     18  H    Isotropic =    32.3304   Anisotropy =    13.1928

     19  H    Isotropic =    33.0762   Anisotropy =     8.1979

     20  H    Isotropic =    32.7823   Anisotropy =    10.9906

     21  H    Isotropic =    32.5044   Anisotropy =    14.1321

     22  H    Isotropic =    32.0708   Anisotropy =    12.0657

     23  H    Isotropic =    32.7028   Anisotropy =    11.5416

     24  H    Isotropic =    35.5000   Anisotropy =    14.1125

     25  H    Isotropic =    32.5273   Anisotropy =    11.6706

     26  H    Isotropic =    32.3105   Anisotropy =     9.5323

     27  H    Isotropic =    32.5582   Anisotropy =    11.0408

     28  H    Isotropic =    32.5069   Anisotropy =    14.9779

     29  H    Isotropic =    32.1780   Anisotropy =     9.1772

     30  H    Isotropic =    32.7594   Anisotropy =    11.9496

     31  H    Isotropic =    32.4015   Anisotropy =    14.8691

 The electronic state is 1-A.
 Alpha  occ. eigenvalues --  -20.23953 -11.08562 -11.04824 -11.04629 -11.04241
 Alpha  occ. eigenvalues --  -11.03733 -11.03626 -11.03583 -11.03325 -11.02671
 Alpha  occ. eigenvalues --  -11.02634  -1.28059  -1.08275  -1.03689  -0.96961
 Alpha  occ. eigenvalues --   -0.94565  -0.88672  -0.87991  -0.79852  -0.78812
 Alpha  occ. eigenvalues --   -0.73784  -0.69065  -0.62846  -0.60528  -0.59463
 Alpha  occ. eigenvalues --   -0.57121  -0.55598  -0.53868  -0.53083  -0.52335
 Alpha  occ. eigenvalues --   -0.51912  -0.49997  -0.49252  -0.47822  -0.46677
 Alpha  occ. eigenvalues --   -0.45963  -0.44483  -0.43308  -0.42443  -0.42268
 Alpha  occ. eigenvalues --   -0.39413  -0.39080  -0.36017  -0.32394
 Alpha virt. eigenvalues --    0.53962   0.54539   0.56617   0.59999   0.61581
 Alpha virt. eigenvalues --    0.61703   0.62206   0.63950   0.64681   0.66608
 Alpha virt. eigenvalues --    0.67571   0.68759   0.70108   0.71707   0.72133

 Mulliken atomic charges:
              1
     1  C   -0.171143
     2  C   -0.024123
     3  C    0.075115
     4  C   -0.102256
     5  C   -0.041726
     6  C   -0.101736
     7  C   -0.113058
     8  O   -0.311709
     9  C   -0.016887
    10  C   -0.175870
    11  C   -0.176683
    12  H    0.053967
    13  H    0.053949
    14  H    0.054188
    15  H    0.045314
    16  H    0.059119
    17  H    0.050637
    18  H    0.047845
    19  H    0.038729
    20  H    0.047069
    21  H    0.051833
    22  H    0.054693
    23  H    0.047013
    24  H    0.177362
    25  H    0.047153
    26  H    0.062317
    27  H    0.051132
    28  H    0.053792
    29  H    0.063828
    30  H    0.047425
    31  H    0.052709
 Sum of Mulliken atomic charges =   0.00000

 Dipole moment (field-independent basis, Debye):
    X=             -0.6911    Y=             -0.7288    Z=             -1.0706  Tot=              1.4679
 Quadrupole moment (field-independent basis, Debye-Ang):
   XX=            -69.0024   YY=            -69.4268   ZZ=            -66.8102
   XY=             -1.5036   XZ=             -1.0327   YZ=             -2.9083

 Summary of Natural Population Analysis:

                                       Natural Population
                Natural  -----------------------------------------------
    Atom  No    Charge         Core      Valence    Rydberg      Total
 -----------------------------------------------------------------------
      C    1   -0.12618      1.99997     4.12620    0.00000     6.12618
      C    2    0.01380      1.99997     3.98623    0.00000     5.98620
      C    3    0.14074      1.99990     3.85937    0.00000     5.85926
      C    4   -0.06345      1.99995     4.06350    0.00000     6.06345
      C    5   -0.02079      1.99996     4.02083    0.00000     6.02079
      C    6   -0.06515      1.99997     4.06519    0.00000     6.06515
      C    7   -0.08878      1.99996     4.08882    0.00000     6.08878
      O    8   -0.33209      1.99999     6.33210    0.00000     8.33209
      C    9    0.02434      1.99996     3.97570    0.00000     5.97566
      C   10   -0.13223      1.99997     4.13227    0.00000     6.13223
      C   11   -0.13281      1.99997     4.13284    0.00000     6.13281
      H   12    0.03665      0.00000     0.96335    0.00000     0.96335
      H   13    0.03659      0.00000     0.96341    0.00000     0.96341
      H   14    0.03689      0.00000     0.96311    0.00000     0.96311
      H   15    0.02153      0.00000     0.97847    0.00000     0.97847
      H   16    0.02394      0.00000     0.97606    0.00000     0.97606
      H   17    0.02909      0.00000     0.97091    0.00000     0.97091
      H   18    0.02675      0.00000     0.97325    0.00000     0.97325
      H   19    0.01418      0.00000     0.98582    0.00000     0.98582
      H   20    0.02656      0.00000     0.97344    0.00000     0.97344
      H   21    0.03142      0.00000     0.96858    0.00000     0.96858
      H   22    0.03358      0.00000     0.96642    0.00000     0.96642
      H   23    0.02712      0.00000     0.97288    0.00000     0.97288
      H   24    0.18974      0.00000     0.81026    0.00000     0.81026
      H   25    0.02186      0.00000     0.97814    0.00000     0.97814
      H   26    0.04413      0.00000     0.95587    0.00000     0.95587
      H   27    0.03403      0.00000     0.96597    0.00000     0.96597
      H   28    0.03688      0.00000     0.96312    0.00000     0.96312
      H   29    0.04514      0.00000     0.95486    0.00000     0.95486
      H   30    0.03073      0.00000     0.96927    0.00000     0.96927
      H   31    0.03577      0.00000     0.96423    0.00000     0.96423
 =======================================================================
   * Total *    0.00000     21.99956    66.00044    0.00000    88.00000

 Normal termination of Gaussian 09 at Tue Aug  3 16:37:43 2021.
