 Gaussian 09, Revision C.01,
 Gaussian 09:  EM64L-G09RevC.01 23-Sep-2011

 ------------------------
 # rhf/STO-3G nmr pop=nbo
 ------------------------

 99/9=1/99;
 -------
 comment
 -------
 Charge =  0 Multiplicity = 1

                         Standard orientation:
 ---------------------------------------------------------------------
 Center     Atomic      Atomic             Coordinates (Angstroms)
 Number     Number       Type             X           Y           Z
 ---------------------------------------------------------------------
      1          6           0       -2.747303   -0.430653    1.244809
      2          6           0       -2.364383   -0.322976   -0.233410
      3          6           0       -0.276055    1.136890   -0.000756
      4          6           0       -0.036832   -1.378560   -0.133756
      5          6           0        0.618274   -0.028415   -0.484048
      6          6           0       -1.464301   -1.482603   -0.674099
      7          6           0       -1.699794    1.019334   -0.552831
      8          8           0        0.245891    2.387620   -0.444526
      9          6           0        2.094947    0.088947    0.003070
     10          6           0        2.992863   -0.982627   -0.627283
     11          6           0        2.255667    0.058163    1.525330
     12          1           0       -1.877895   -0.386461    1.907020
     13          1           0       -3.423834    0.383320    1.526523
     14          1           0       -3.266748   -1.375217    1.438788
     15          1           0       -3.297515   -0.382938   -0.808697
     16          1           0       -0.322886    1.168208    1.092747
     17          1           0       -0.049619   -1.527153    0.951386
     18          1           0        0.543627   -2.205080   -0.557512
     19          1           0        0.662808    0.040751   -1.581595
     20          1           0       -1.902819   -2.439856   -0.367812
     21          1           0       -1.421886   -1.498758   -1.771042
     22          1           0       -2.310980    1.849546   -0.176161
     23          1           0       -1.671725    1.157007   -1.642661
     24          1           0        1.026731    2.591095    0.097084
     25          1           0        2.485343    1.053655   -0.345605
     26          1           0        2.773578   -1.981482   -0.237400
     27          1           0        2.874694   -1.002217   -1.715602
     28          1           0        4.046534   -0.772115   -0.412748
     29          1           0        1.913676   -0.889550    1.952058
     30          1           0        1.703802    0.871141    2.005176
     31          1           0        3.309482    0.180149    1.800116
 ---------------------------------------------------------------------

 SCF Done:  E(RHF) =  -459.619446409     A.U. after   10 cycles

      1  C    Isotropic =   222.9621   Anisotropy =    24.2047

      2  C    Isotropic =   216.2646   Anisotropy =     3.7430

      3  C    Isotropic =   189.9989   Anisotropy =    42.6966

      4  C    Isotropic =   221.0184   Anisotropy =    14.5360

      5  C    Isotropic =   208.8761   Anisotropy =    13.4193

      6  C    Isotropic =   216.6827   Anisotropy =    11.6940

      7  C    Isotropic =   216.1191   Anisotropy =    14.7191

      8  O    Isotropic =   365.6508   Anisotropy =    68.2655

      9  C    Isotropic =   215.5394   Anisotropy =    12.3708

     10  C    Isotropic =   221.4616   Anisotropy =    26.2023

     11  C    Isotropic =   224.8822   Anisotropy =    20.1547

     12  H    Isotropic =    32.7087   Anisotropy =     7.7824

     13  H    Isotropic =    32.5643   Anisotropy =    14.1835

     14  H    Isotropic =    32.6295   Anisotropy =    14.3169

     15  H    Isotropic =    32.3440   Anisotropy =    15.5451

     16  H    Isotropic =    32.2102   Anisotropy =     5.7012

     17  H    Isotropic =    32.9701   Anisotropy =     8.7030

     18  H    Isotropic =    32.5827   Anisotropy =    12.8573

     19  H    Isotropic =    32.4143   Anisotropy =     9.5361

     20  H    Isotropic =    32.5190   Anisotropy =    14.4189

     21  H    Isotropic =    32.4863   Anisotropy =    13.2783

     22  H    Isotropic =    32.0105   Anisotropy =    13.8690

     23  H    Isotropic =    32.1142   Anisotropy =    12.6592

     24  H    Isotropic =    34.5480   Anisotropy =    16.7031

     25  H    Isotropic =    32.6048   Anisotropy =    11.5563

     26  H    Isotropic =    32.5693   Anisotropy =     9.9803

     27  H    Isotropic =    32.5048   Anisotropy =    12.7700

     28  H    Isotropic =    32.4675   Anisotropy =    14.5822

     29  H    Isotropic =    32.8087   Anisotropy =     9.8537

     30  H    Isotropic =    32.9396   Anisotropy =    10.7811

     31  H    Isotropic =    32.6978   Anisotropy =    14.5800

 The electronic state is 1-A.
 Alpha  occ. eigenvalues --  -20.23659 -11.08339 -11.05042 -11.04677 -11.04128
 Alpha  occ. eigenvalues --  -11.03668 -11.03626 -11.03600 -11.03451 -11.03284
 Alpha  occ. eigenvalues --  -11.03126  -1.27717  -1.08281  -1.04010  -0.96631
 Alpha  occ. eigenvalues --   -0.94596  -0.89395  -0.88292  -0.80726  -0.77959
 Alpha  occ. eigenvalues --   -0.72564  -0.69457  -0.62251  -0.61045  -0.59451
 Alpha  occ. eigenvalues --   -0.58011  -0.57045  -0.54532  -0.53668  -0.52199
 Alpha  occ. eigenvalues --   -0.51718  -0.50466  -0.49554  -0.47870  -0.46663
 Alpha  occ. eigenvalues --   -0.45580  -0.43637  -0.43092  -0.42193  -0.41301
 Alpha  occ. eigenvalues --   -0.40418  -0.38221  -0.37017  -0.32891
 Alpha virt. eigenvalues --    0.53533   0.55017   0.57628   0.58298   0.60705
 Alpha virt. eigenvalues --    0.61836   0.63748   0.65312   0.65906   0.66343
 Alpha virt. eigenvalues --    0.67782   0.68929   0.69933   0.71288   0.71650

 Mulliken atomic charges:
              1
     1  C   -0.174864
     2  C   -0.024266
     3  C    0.075653
     4  C   -0.104971
     5  C   -0.040270
     6  C   -0.099437
     7  C   -0.105368
     8  O   -0.313254
     9  C   -0.024027
    10  C   -0.172446
    11  C   -0.177427
    12  H    0.052059
    13  H    0.054524
    14  H    0.053770
    15  H    0.050761
    16  H    0.039892
    17  H    0.047606
    18  H    0.052918
    19  H    0.050413
    20  H    0.050367
    21  H    0.048282
    22  H    0.056795
    23  H    0.056114
    24  H    0.177162
    25  H    0.045980
    26  H    0.054297
    27  H    0.054748
    28  H    0.054128
    29  H    0.056013
    30  H    0.049022
    31  H    0.055826
 Sum of Mulliken atomic charges =   0.00000

 Dipole moment (field-independent basis, Debye):
    X=              0.4912    Y=             -0.9027    Z=              0.8929  Tot=              1.3614
 Quadrupole moment (field-independent basis, Debye-Ang):
   XX=            -66.1014   YY=            -70.7593   ZZ=            -68.0733
   XY=              1.8316   XZ=              0.6706   YZ=              2.7845

 Summary of Natural Population Analysis:

                                       Natural Population
                Natural  -----------------------------------------------
    Atom  No    Charge         Core      Valence    Rydberg      Total
 -----------------------------------------------------------------------
      C    1   -0.13006      1.99997     4.13009    0.00000     6.13006
      C    2    0.01402      1.99997     3.98601    0.00000     5.98598
      C    3    0.14337      1.99989     3.85674    0.00000     5.85663
      C    4   -0.06726      1.99996     4.06731    0.00000     6.06726
      C    5   -0.01979      1.99995     4.01984    0.00000     6.01979
      C    6   -0.06177      1.99996     4.06181    0.00000     6.06177
      C    7   -0.08184      1.99996     4.08189    0.00000     6.08184
      O    8   -0.33428      1.99999     6.33428    0.00000     8.33428
      C    9    0.01724      1.99996     3.98280    0.00000     5.98276
      C   10   -0.12805      1.99997     4.12809    0.00000     6.12805
      C   11   -0.13348      1.99997     4.13351    0.00000     6.13348
      H   12    0.03481      0.00000     0.96519    0.00000     0.96519
      H   13    0.03730      0.00000     0.96270    0.00000     0.96270
      H   14    0.03664      0.00000     0.96336    0.00000     0.96336
      H   15    0.02657      0.00000     0.97343    0.00000     0.97343
      H   16    0.00450      0.00000     0.99550    0.00000     0.99550
      H   17    0.02661      0.00000     0.97339    0.00000     0.97339
      H   18    0.03189      0.00000     0.96811    0.00000     0.96811
      H   19    0.02492      0.00000     0.97508    0.00000     0.97508
      H   20    0.02961      0.00000     0.97039    0.00000     0.97039
      H   21    0.02744      0.00000     0.97256    0.00000     0.97256
      H   22    0.03573      0.00000     0.96427    0.00000     0.96427
      H   23    0.03514      0.00000     0.96486    0.00000     0.96486
      H   24    0.18953      0.00000     0.81047    0.00000     0.81047
      H   25    0.02095      0.00000     0.97905    0.00000     0.97905
      H   26    0.03667      0.00000     0.96333    0.00000     0.96333
      H   27    0.03721      0.00000     0.96279    0.00000     0.96279
      H   28    0.03683      0.00000     0.96317    0.00000     0.96317
      H   29    0.03862      0.00000     0.96138    0.00000     0.96138
      H   30    0.03216      0.00000     0.96784    0.00000     0.96784
      H   31    0.03879      0.00000     0.96121    0.00000     0.96121
 =======================================================================
   * Total *    0.00000     21.99954    66.00046    0.00000    88.00000

 Normal termination of Gaussian 09 at Tue Aug  3 16:35:50 2021.
