 Gaussian 09, Revision C.01,
 Gaussian 09:  EM64L-G09RevC.01 23-Sep-2011

 ------------------------
 # rhf/STO-3G nmr pop=nbo
 ------------------------

 99/9=1/99;
 -------
 comment
 -------
 Charge =  0 Multiplicity = 1

                         Standard orientation:
 ---------------------------------------------------------------------
 Center     Atomic      Atomic             Coordinates (Angstroms)
 Number     Number       Type             X           Y           Z
 ---------------------------------------------------------------------
      1          6           0       -2.843214   -0.279748    1.228315
      2          6           0       -2.428946   -0.143294   -0.238177
      3          6           0       -0.193593    1.065942    0.105820
      4          6           0       -0.256207   -1.467965   -0.133881
      5          6           0        0.600849   -0.194793   -0.321712
      6          6           0       -1.654302   -1.362371   -0.736399
      7          6           0       -1.606507    1.118731   -0.485022
      8          8           0        0.477431    2.241815   -0.348065
      9          6           0        1.967547   -0.347925    0.435301
     10          6           0        2.890469    0.869159    0.305363
     11          6           0        2.748949   -1.586459   -0.031269
     12          1           0       -3.439700    0.584490    1.539765
     13          1           0       -3.456704   -1.175524    1.372339
     14          1           0       -1.984477   -0.350883    1.902037
     15          1           0       -3.353035   -0.066661   -0.825883
     16          1           0       -0.241908    1.113958    1.199882
     17          1           0       -0.334811   -1.706245    0.933797
     18          1           0        0.235272   -2.324195   -0.608945
     19          1           0        0.831794   -0.094660   -1.392103
     20          1           0       -2.215253   -2.279846   -0.521594
     21          1           0       -1.562285   -1.304407   -1.828834
     22          1           0       -2.134954    1.998538   -0.095419
     23          1           0       -1.530486    1.290228   -1.568005
     24          1           0       -0.011801    3.010139   -0.007529
     25          1           0        1.754466   -0.480213    1.504608
     26          1           0        3.023208    1.158027   -0.742377
     27          1           0        2.502219    1.725286    0.864235
     28          1           0        3.881600    0.658317    0.722725
     29          1           0        2.897126   -1.574156   -1.116244
     30          1           0        2.234594   -2.513338    0.238387
     31          1           0        3.735420   -1.631023    0.443635
 ---------------------------------------------------------------------

 SCF Done:  E(RHF) =  -459.616599346     A.U. after   10 cycles

      1  C    Isotropic =   223.3078   Anisotropy =    23.8387

      2  C    Isotropic =   216.8614   Anisotropy =     3.3726

      3  C    Isotropic =   188.7875   Anisotropy =    38.8313

      4  C    Isotropic =   218.5343   Anisotropy =    17.7771

      5  C    Isotropic =   208.4186   Anisotropy =    15.5924

      6  C    Isotropic =   217.1707   Anisotropy =    11.9511

      7  C    Isotropic =   214.7843   Anisotropy =    17.4138

      8  O    Isotropic =   353.5593   Anisotropy =    86.9307

      9  C    Isotropic =   210.9858   Anisotropy =    18.6222

     10  C    Isotropic =   220.5887   Anisotropy =    24.3125

     11  C    Isotropic =   220.7391   Anisotropy =    26.2012

     12  H    Isotropic =    32.6880   Anisotropy =    14.0871

     13  H    Isotropic =    32.6369   Anisotropy =    14.3361

     14  H    Isotropic =    32.7201   Anisotropy =     7.8195

     15  H    Isotropic =    32.4470   Anisotropy =    15.3672

     16  H    Isotropic =    32.1983   Anisotropy =     6.2750

     17  H    Isotropic =    32.8745   Anisotropy =     9.1726

     18  H    Isotropic =    32.3004   Anisotropy =    12.7300

     19  H    Isotropic =    32.4978   Anisotropy =     8.8263

     20  H    Isotropic =    32.5050   Anisotropy =    14.5645

     21  H    Isotropic =    32.4961   Anisotropy =    13.1729

     22  H    Isotropic =    32.7895   Anisotropy =    12.9826

     23  H    Isotropic =    32.2011   Anisotropy =    12.0066

     24  H    Isotropic =    35.0134   Anisotropy =    19.1160

     25  H    Isotropic =    32.6950   Anisotropy =     9.4845

     26  H    Isotropic =    32.2313   Anisotropy =    10.5786

     27  H    Isotropic =    31.8794   Anisotropy =    10.3104

     28  H    Isotropic =    32.5707   Anisotropy =    14.2644

     29  H    Isotropic =    32.5336   Anisotropy =    11.2393

     30  H    Isotropic =    32.3502   Anisotropy =    10.9622

     31  H    Isotropic =    32.5064   Anisotropy =    14.2017

 The electronic state is 1-A.
 Alpha  occ. eigenvalues --  -20.23532 -11.08515 -11.04793 -11.04391 -11.04169
 Alpha  occ. eigenvalues --  -11.03704 -11.03669 -11.03613 -11.03338 -11.02542
 Alpha  occ. eigenvalues --  -11.01756  -1.27693  -1.08154  -1.03358  -0.96479
 Alpha  occ. eigenvalues --   -0.94518  -0.88578  -0.87908  -0.79563  -0.78081
 Alpha  occ. eigenvalues --   -0.72713  -0.69932  -0.62039  -0.60835  -0.58648
 Alpha  occ. eigenvalues --   -0.57185  -0.56330  -0.54621  -0.54203  -0.51337
 Alpha  occ. eigenvalues --   -0.51046  -0.49554  -0.49460  -0.47447  -0.46677
 Alpha  occ. eigenvalues --   -0.44543  -0.44255  -0.43069  -0.41664  -0.41073
 Alpha  occ. eigenvalues --   -0.39582  -0.38238  -0.36749  -0.32733
 Alpha virt. eigenvalues --    0.53036   0.54508   0.56958   0.60041   0.61774
 Alpha virt. eigenvalues --    0.62098   0.63101   0.65347   0.65569   0.68292
 Alpha virt. eigenvalues --    0.68659   0.69512   0.69858   0.71322   0.72730

 Mulliken atomic charges:
              1
     1  C   -0.175330
     2  C   -0.024447
     3  C    0.075924
     4  C   -0.103211
     5  C   -0.031398
     6  C   -0.099931
     7  C   -0.113234
     8  O   -0.312404
     9  C   -0.017393
    10  C   -0.171353
    11  C   -0.173595
    12  H    0.053129
    13  H    0.054693
    14  H    0.053197
    15  H    0.049658
    16  H    0.038764
    17  H    0.047298
    18  H    0.055112
    19  H    0.052331
    20  H    0.050695
    21  H    0.048729
    22  H    0.044167
    23  H    0.055599
    24  H    0.175416
    25  H    0.041781
    26  H    0.057804
    27  H    0.061074
    28  H    0.048422
    29  H    0.052369
    30  H    0.052299
    31  H    0.053831
 Sum of Mulliken atomic charges =   0.00000

 Dipole moment (field-independent basis, Debye):
    X=             -1.2236    Y=             -0.1247    Z=              0.6607  Tot=              1.3962
 Quadrupole moment (field-independent basis, Debye-Ang):
   XX=            -68.7444   YY=            -66.4224   ZZ=            -67.4733
   XY=             -2.7896   XZ=              0.5827   YZ=              1.9844

 Summary of Natural Population Analysis:

                                       Natural Population
                Natural  -----------------------------------------------
    Atom  No    Charge         Core      Valence    Rydberg      Total
 -----------------------------------------------------------------------
      C    1   -0.13025      1.99997     4.13028    0.00000     6.13025
      C    2    0.01304      1.99997     3.98699    0.00000     5.98696
      C    3    0.14420      1.99989     3.85591    0.00000     5.85580
      C    4   -0.06595      1.99995     4.06600    0.00000     6.06595
      C    5   -0.00741      1.99995     4.00746    0.00000     6.00741
      C    6   -0.06335      1.99996     4.06338    0.00000     6.06335
      C    7   -0.09014      1.99996     4.09018    0.00000     6.09014
      O    8   -0.33385      1.99999     6.33386    0.00000     8.33385
      C    9    0.02509      1.99996     3.97495    0.00000     5.97491
      C   10   -0.12864      1.99997     4.12867    0.00000     6.12864
      C   11   -0.12943      1.99997     4.12947    0.00000     6.12943
      H   12    0.03609      0.00000     0.96391    0.00000     0.96391
      H   13    0.03754      0.00000     0.96246    0.00000     0.96246
      H   14    0.03588      0.00000     0.96412    0.00000     0.96412
      H   15    0.02586      0.00000     0.97414    0.00000     0.97414
      H   16    0.00294      0.00000     0.99706    0.00000     0.99706
      H   17    0.02622      0.00000     0.97378    0.00000     0.97378
      H   18    0.03390      0.00000     0.96610    0.00000     0.96610
      H   19    0.02567      0.00000     0.97433    0.00000     0.97433
      H   20    0.03028      0.00000     0.96972    0.00000     0.96972
      H   21    0.02822      0.00000     0.97178    0.00000     0.97178
      H   22    0.02459      0.00000     0.97541    0.00000     0.97541
      H   23    0.03495      0.00000     0.96505    0.00000     0.96505
      H   24    0.18789      0.00000     0.81211    0.00000     0.81211
      H   25    0.01602      0.00000     0.98398    0.00000     0.98398
      H   26    0.04013      0.00000     0.95987    0.00000     0.95987
      H   27    0.04277      0.00000     0.95723    0.00000     0.95723
      H   28    0.03150      0.00000     0.96850    0.00000     0.96850
      H   29    0.03498      0.00000     0.96502    0.00000     0.96502
      H   30    0.03467      0.00000     0.96533    0.00000     0.96533
      H   31    0.03657      0.00000     0.96343    0.00000     0.96343
 =======================================================================
   * Total *    0.00000     21.99954    66.00046    0.00000    88.00000

 Normal termination of Gaussian 09 at Sun May 24 02:08:09 2020.
