 Gaussian 09, Revision C.01,
 Gaussian 09:  EM64L-G09RevC.01 23-Sep-2011

 ------------------------
 # rhf/STO-3G nmr pop=nbo
 ------------------------

 99/9=1/99;
 -------
 comment
 -------
 Charge =  0 Multiplicity = 1

                         Standard orientation:
 ---------------------------------------------------------------------
 Center     Atomic      Atomic             Coordinates (Angstroms)
 Number     Number       Type             X           Y           Z
 ---------------------------------------------------------------------
      1          6           0       -2.733698   -0.494721    1.230532
      2          6           0       -2.347831   -0.352427   -0.244050
      3          6           0       -0.278120    1.127245    0.023184
      4          6           0       -0.008201   -1.382550   -0.155585
      5          6           0        0.629651   -0.018313   -0.476958
      6          6           0       -1.431807   -1.492162   -0.705119
      7          6           0       -1.700198    1.005334   -0.533080
      8          8           0        0.264560    2.378433   -0.394915
      9          6           0        2.099718    0.118503    0.024340
     10          6           0        3.029732   -0.889842   -0.660886
     11          6           0        2.257711    0.006768    1.543287
     12          1           0       -3.423818    0.302999    1.525499
     13          1           0       -3.238834   -1.450838    1.404613
     14          1           0       -1.867121   -0.449321    1.896379
     15          1           0       -3.278382   -0.412614   -0.823476
     16          1           0       -0.314692    1.136397    1.117190
     17          1           0       -0.025865   -1.552002    0.926383
     18          1           0        0.586447   -2.192717   -0.591190
     19          1           0        0.679204    0.072634   -1.572743
     20          1           0       -1.860311   -2.460684   -0.420900
     21          1           0       -1.384389   -1.484688   -1.801933
     22          1           0       -2.323053    1.818441   -0.138962
     23          1           0       -1.671752    1.167679   -1.619374
     24          1           0       -0.315294    3.079232   -0.051098
     25          1           0        2.459270    1.114568   -0.265738
     26          1           0        2.828860   -1.916146   -0.338236
     27          1           0        2.923840   -0.843319   -1.749661
     28          1           0        4.075790   -0.669432   -0.420770
     29          1           0        1.958591   -0.978735    1.912905
     30          1           0        1.668768    0.764677    2.067017
     31          1           0        3.304522    0.159390    1.829413
 ---------------------------------------------------------------------

 SCF Done:  E(RHF) =  -459.620595177     A.U. after   10 cycles

      1  C    Isotropic =   223.0211   Anisotropy =    24.1729

      2  C    Isotropic =   216.3169   Anisotropy =     4.0771

      3  C    Isotropic =   190.2355   Anisotropy =    42.7564

      4  C    Isotropic =   221.0463   Anisotropy =    14.1584

      5  C    Isotropic =   208.9921   Anisotropy =    14.7652

      6  C    Isotropic =   216.6448   Anisotropy =    11.8173

      7  C    Isotropic =   214.5011   Anisotropy =    16.3859

      8  O    Isotropic =   356.3092   Anisotropy =    88.1673

      9  C    Isotropic =   214.6977   Anisotropy =    14.6204

     10  C    Isotropic =   221.2593   Anisotropy =    26.6403

     11  C    Isotropic =   224.3807   Anisotropy =    20.3702

     12  H    Isotropic =    32.6987   Anisotropy =    14.0658

     13  H    Isotropic =    32.6399   Anisotropy =    14.2756

     14  H    Isotropic =    32.7033   Anisotropy =     7.8860

     15  H    Isotropic =    32.4201   Anisotropy =    15.3577

     16  H    Isotropic =    32.1701   Anisotropy =     5.8489

     17  H    Isotropic =    32.8834   Anisotropy =     8.7876

     18  H    Isotropic =    32.5077   Anisotropy =    13.0975

     19  H    Isotropic =    32.3521   Anisotropy =     9.3846

     20  H    Isotropic =    32.5121   Anisotropy =    14.4165

     21  H    Isotropic =    32.4989   Anisotropy =    13.2674

     22  H    Isotropic =    32.8245   Anisotropy =    13.1006

     23  H    Isotropic =    32.2310   Anisotropy =    12.2419

     24  H    Isotropic =    35.0549   Anisotropy =    19.3766

     25  H    Isotropic =    31.7750   Anisotropy =    11.6324

     26  H    Isotropic =    32.5532   Anisotropy =    10.0413

     27  H    Isotropic =    32.4675   Anisotropy =    12.6462

     28  H    Isotropic =    32.3765   Anisotropy =    14.7170

     29  H    Isotropic =    32.7874   Anisotropy =     9.7967

     30  H    Isotropic =    32.4712   Anisotropy =    10.5162

     31  H    Isotropic =    32.5284   Anisotropy =    14.7481

 The electronic state is 1-A.
 Alpha  occ. eigenvalues --  -20.23628 -11.08350 -11.04869 -11.04196 -11.04029
 Alpha  occ. eigenvalues --  -11.03708 -11.03694 -11.03615 -11.03323 -11.02601
 Alpha  occ. eigenvalues --  -11.02567  -1.27712  -1.08235  -1.03477  -0.96484
 Alpha  occ. eigenvalues --   -0.94607  -0.88530  -0.88387  -0.80500  -0.78042
 Alpha  occ. eigenvalues --   -0.72168  -0.69376  -0.61908  -0.61255  -0.58888
 Alpha  occ. eigenvalues --   -0.57280  -0.56382  -0.55581  -0.53926  -0.51559
 Alpha  occ. eigenvalues --   -0.51288  -0.49819  -0.49017  -0.48069  -0.46609
 Alpha  occ. eigenvalues --   -0.45326  -0.43992  -0.43136  -0.41719  -0.41047
 Alpha  occ. eigenvalues --   -0.39692  -0.38330  -0.36501  -0.33045
 Alpha virt. eigenvalues --    0.53448   0.55190   0.57368   0.60277   0.60899
 Alpha virt. eigenvalues --    0.62043   0.63557   0.65654   0.65788   0.66503
 Alpha virt. eigenvalues --    0.68359   0.68979   0.69727   0.71338   0.72127

 Mulliken atomic charges:
              1
     1  C   -0.175240
     2  C   -0.024023
     3  C    0.075764
     4  C   -0.104813
     5  C   -0.031381
     6  C   -0.099475
     7  C   -0.114005
     8  O   -0.313672
     9  C   -0.020372
    10  C   -0.173121
    11  C   -0.175488
    12  H    0.052963
    13  H    0.054604
    14  H    0.053230
    15  H    0.049845
    16  H    0.039603
    17  H    0.049050
    18  H    0.054272
    19  H    0.051032
    20  H    0.050651
    21  H    0.048272
    22  H    0.044190
    23  H    0.054597
    24  H    0.175992
    25  H    0.061226
    26  H    0.051471
    27  H    0.052804
    28  H    0.053528
    29  H    0.051145
    30  H    0.053204
    31  H    0.054149
 Sum of Mulliken atomic charges =   0.00000

 Dipole moment (field-independent basis, Debye):
    X=             -1.1558    Y=             -0.2396    Z=              0.6037  Tot=              1.3258
 Quadrupole moment (field-independent basis, Debye-Ang):
   XX=            -67.7858   YY=            -66.8981   ZZ=            -68.0704
   XY=             -2.8363   XZ=              0.4062   YZ=              2.0162

 Summary of Natural Population Analysis:

                                       Natural Population
                Natural  -----------------------------------------------
    Atom  No    Charge         Core      Valence    Rydberg      Total
 -----------------------------------------------------------------------
      C    1   -0.13045      1.99997     4.13048    0.00000     6.13045
      C    2    0.01457      1.99997     3.98547    0.00000     5.98543
      C    3    0.14340      1.99988     3.85672    0.00000     5.85660
      C    4   -0.06756      1.99996     4.06760    0.00000     6.06756
      C    5   -0.00936      1.99995     4.00941    0.00000     6.00936
      C    6   -0.06174      1.99996     4.06178    0.00000     6.06174
      C    7   -0.09034      1.99996     4.09037    0.00000     6.09034
      O    8   -0.33465      1.99999     6.33466    0.00000     8.33465
      C    9    0.01936      1.99996     3.98069    0.00000     5.98064
      C   10   -0.12861      1.99997     4.12864    0.00000     6.12861
      C   11   -0.13146      1.99997     4.13149    0.00000     6.13146
      H   12    0.03588      0.00000     0.96412    0.00000     0.96412
      H   13    0.03742      0.00000     0.96258    0.00000     0.96258
      H   14    0.03587      0.00000     0.96413    0.00000     0.96413
      H   15    0.02560      0.00000     0.97440    0.00000     0.97440
      H   16    0.00374      0.00000     0.99626    0.00000     0.99626
      H   17    0.02795      0.00000     0.97205    0.00000     0.97205
      H   18    0.03329      0.00000     0.96671    0.00000     0.96671
      H   19    0.02531      0.00000     0.97469    0.00000     0.97469
      H   20    0.02986      0.00000     0.97014    0.00000     0.97014
      H   21    0.02740      0.00000     0.97260    0.00000     0.97260
      H   22    0.02446      0.00000     0.97554    0.00000     0.97554
      H   23    0.03384      0.00000     0.96616    0.00000     0.96616
      H   24    0.18854      0.00000     0.81146    0.00000     0.81146
      H   25    0.03466      0.00000     0.96534    0.00000     0.96534
      H   26    0.03406      0.00000     0.96594    0.00000     0.96594
      H   27    0.03546      0.00000     0.96454    0.00000     0.96454
      H   28    0.03636      0.00000     0.96364    0.00000     0.96364
      H   29    0.03400      0.00000     0.96600    0.00000     0.96600
      H   30    0.03587      0.00000     0.96413    0.00000     0.96413
      H   31    0.03728      0.00000     0.96272    0.00000     0.96272
 =======================================================================
   * Total *    0.00000     21.99954    66.00046    0.00000    88.00000

 Normal termination of Gaussian 09 at Tue Aug  3 16:36:03 2021.
