 Gaussian 09, Revision C.01,
 Gaussian 09:  EM64L-G09RevC.01 23-Sep-2011

 ------------------------
 # rhf/STO-3G nmr pop=nbo
 ------------------------

 99/9=1/99;
 -------
 comment
 -------
 Charge =  0 Multiplicity = 1

                         Standard orientation:
 ---------------------------------------------------------------------
 Center     Atomic      Atomic             Coordinates (Angstroms)
 Number     Number       Type             X           Y           Z
 ---------------------------------------------------------------------
      1          6           0       -2.965208   -0.361138    1.067563
      2          6           0       -2.426104   -0.112086   -0.343241
      3          6           0       -0.234195    1.063164    0.259079
      4          6           0       -0.233131   -1.415082   -0.188426
      5          6           0        0.598738   -0.119913   -0.303002
      6          6           0       -1.603659   -1.296550   -0.856366
      7          6           0       -1.602266    1.174673   -0.419796
      8          8           0        0.422694    2.310502    0.063003
      9          6           0        2.006654   -0.219619    0.378065
     10          6           0        3.040582    0.668939   -0.333401
     11          6           0        2.585766   -1.640079    0.432362
     12          1           0       -2.167359   -0.497851    1.803077
     13          1           0       -3.582755    0.481336    1.396947
     14          1           0       -3.592712   -1.258686    1.085534
     15          1           0       -3.297770    0.004505   -1.000410
     16          1           0       -0.378217    0.937233    1.338996
     17          1           0       -0.359379   -1.686268    0.866482
     18          1           0        0.292882   -2.245955   -0.672081
     19          1           0        0.768847    0.066699   -1.373171
     20          1           0       -2.159829   -2.231594   -0.719025
     21          1           0       -1.455505   -1.181146   -1.938094
     22          1           0       -2.162055    2.013566    0.013526
     23          1           0       -1.453728    1.445104   -1.474485
     24          1           0        1.066923    2.416348    0.783340
     25          1           0        1.918664    0.128312    1.415481
     26          1           0        3.191681    0.342151   -1.368299
     27          1           0        2.749240    1.720111   -0.356365
     28          1           0        4.009115    0.617693    0.176647
     29          1           0        2.670550   -2.075087   -0.569155
     30          1           0        1.970120   -2.300024    1.051314
     31          1           0        3.586674   -1.634301    0.878699
 ---------------------------------------------------------------------

 SCF Done:  E(RHF) =  -459.615945935     A.U. after   10 cycles

      1  C    Isotropic =   222.9710   Anisotropy =    24.4158

      2  C    Isotropic =   216.3939   Anisotropy =     3.7789

      3  C    Isotropic =   186.4998   Anisotropy =    36.3942

      4  C    Isotropic =   218.6993   Anisotropy =    15.6352

      5  C    Isotropic =   208.1720   Anisotropy =    15.1483

      6  C    Isotropic =   216.6830   Anisotropy =    11.9962

      7  C    Isotropic =   216.0332   Anisotropy =    15.3245

      8  O    Isotropic =   365.8470   Anisotropy =    72.3547

      9  C    Isotropic =   212.4233   Anisotropy =    18.0105

     10  C    Isotropic =   219.7416   Anisotropy =    28.8137

     11  C    Isotropic =   221.6948   Anisotropy =    21.6356

     12  H    Isotropic =    32.6952   Anisotropy =     7.8309

     13  H    Isotropic =    32.5640   Anisotropy =    14.1732

     14  H    Isotropic =    32.6202   Anisotropy =    14.3284

     15  H    Isotropic =    32.3560   Anisotropy =    15.4341

     16  H    Isotropic =    32.2627   Anisotropy =     6.1994

     17  H    Isotropic =    32.9313   Anisotropy =     8.9793

     18  H    Isotropic =    32.4995   Anisotropy =    12.3127

     19  H    Isotropic =    32.5550   Anisotropy =     8.2989

     20  H    Isotropic =    32.5110   Anisotropy =    14.3712

     21  H    Isotropic =    32.4904   Anisotropy =    13.0835

     22  H    Isotropic =    32.0149   Anisotropy =    13.7199

     23  H    Isotropic =    32.1131   Anisotropy =    12.2728

     24  H    Isotropic =    34.5274   Anisotropy =    16.7235

     25  H    Isotropic =    33.0263   Anisotropy =     9.5536

     26  H    Isotropic =    32.4992   Anisotropy =    11.5177

     27  H    Isotropic =    32.3141   Anisotropy =    10.2226

     28  H    Isotropic =    32.5767   Anisotropy =    14.3517

     29  H    Isotropic =    32.5976   Anisotropy =    10.9456

     30  H    Isotropic =    32.5158   Anisotropy =    10.6776

     31  H    Isotropic =    32.5896   Anisotropy =    14.1135

 The electronic state is 1-A.
 Alpha  occ. eigenvalues --  -20.23820 -11.08471 -11.04913 -11.04635 -11.04073
 Alpha  occ. eigenvalues --  -11.03643 -11.03598 -11.03408 -11.03181 -11.03133
 Alpha  occ. eigenvalues --  -11.02871  -1.27937  -1.08160  -1.03760  -0.96652
 Alpha  occ. eigenvalues --   -0.94588  -0.88822  -0.88310  -0.79919  -0.77720
 Alpha  occ. eigenvalues --   -0.73022  -0.70104  -0.62282  -0.60836  -0.59240
 Alpha  occ. eigenvalues --   -0.58141  -0.55300  -0.54805  -0.53887  -0.52415
 Alpha  occ. eigenvalues --   -0.50711  -0.50284  -0.49737  -0.47695  -0.46628
 Alpha  occ. eigenvalues --   -0.45027  -0.43789  -0.43347  -0.41947  -0.41425
 Alpha  occ. eigenvalues --   -0.40261  -0.38100  -0.37394  -0.32549
 Alpha virt. eigenvalues --    0.52805   0.54553   0.57535   0.60077   0.60369
 Alpha virt. eigenvalues --    0.61502   0.63730   0.65191   0.65995   0.67551
 Alpha virt. eigenvalues --    0.67975   0.69241   0.70154   0.70702   0.71625

 Mulliken atomic charges:
              1
     1  C   -0.174765
     2  C   -0.024586
     3  C    0.078657
     4  C   -0.102580
     5  C   -0.040399
     6  C   -0.100051
     7  C   -0.105989
     8  O   -0.313270
     9  C   -0.022991
    10  C   -0.175699
    11  C   -0.171996
    12  H    0.051745
    13  H    0.054348
    14  H    0.053827
    15  H    0.050553
    16  H    0.037671
    17  H    0.046012
    18  H    0.053631
    19  H    0.050446
    20  H    0.050577
    21  H    0.048380
    22  H    0.056489
    23  H    0.056022
    24  H    0.178541
    25  H    0.038601
    26  H    0.054129
    27  H    0.059290
    28  H    0.051372
    29  H    0.053565
    30  H    0.054361
    31  H    0.054108
 Sum of Mulliken atomic charges =   0.00000

 Dipole moment (field-independent basis, Debye):
    X=              0.1693    Y=             -0.9535    Z=              0.9167  Tot=              1.3335
 Quadrupole moment (field-independent basis, Debye-Ang):
   XX=            -66.7507   YY=            -71.4503   ZZ=            -66.2793
   XY=              0.6863   XZ=              1.3073   YZ=              2.6782

 Summary of Natural Population Analysis:

                                       Natural Population
                Natural  -----------------------------------------------
    Atom  No    Charge         Core      Valence    Rydberg      Total
 -----------------------------------------------------------------------
      C    1   -0.12980      1.99997     4.12982    0.00000     6.12980
      C    2    0.01334      1.99997     3.98669    0.00000     5.98666
      C    3    0.14643      1.99989     3.85368    0.00000     5.85357
      C    4   -0.06466      1.99996     4.06470    0.00000     6.06466
      C    5   -0.01900      1.99995     4.01905    0.00000     6.01900
      C    6   -0.06291      1.99996     4.06295    0.00000     6.06291
      C    7   -0.08312      1.99996     4.08316    0.00000     6.08312
      O    8   -0.33472      1.99999     6.33473    0.00000     8.33472
      C    9    0.02012      1.99996     3.97992    0.00000     5.97988
      C   10   -0.13144      1.99997     4.13147    0.00000     6.13144
      C   11   -0.12788      1.99997     4.12791    0.00000     6.12788
      H   12    0.03451      0.00000     0.96549    0.00000     0.96549
      H   13    0.03714      0.00000     0.96286    0.00000     0.96286
      H   14    0.03669      0.00000     0.96331    0.00000     0.96331
      H   15    0.02652      0.00000     0.97348    0.00000     0.97348
      H   16    0.00272      0.00000     0.99728    0.00000     0.99728
      H   17    0.02514      0.00000     0.97486    0.00000     0.97486
      H   18    0.03240      0.00000     0.96760    0.00000     0.96760
      H   19    0.02432      0.00000     0.97568    0.00000     0.97568
      H   20    0.02996      0.00000     0.97004    0.00000     0.97004
      H   21    0.02769      0.00000     0.97231    0.00000     0.97231
      H   22    0.03559      0.00000     0.96441    0.00000     0.96441
      H   23    0.03519      0.00000     0.96481    0.00000     0.96481
      H   24    0.19117      0.00000     0.80883    0.00000     0.80883
      H   25    0.01347      0.00000     0.98653    0.00000     0.98653
      H   26    0.03680      0.00000     0.96320    0.00000     0.96320
      H   27    0.04055      0.00000     0.95945    0.00000     0.95945
      H   28    0.03417      0.00000     0.96583    0.00000     0.96583
      H   29    0.03619      0.00000     0.96381    0.00000     0.96381
      H   30    0.03664      0.00000     0.96336    0.00000     0.96336
      H   31    0.03678      0.00000     0.96322    0.00000     0.96322
 =======================================================================
   * Total *    0.00000     21.99954    66.00046    0.00000    88.00000

 Normal termination of Gaussian 09 at Sun May 24 02:09:08 2020.
